11
	Energy:      10.5547684
C         -4.17342        1.46321       -0.00392
C         -4.23789        2.80395        0.01729
C         -2.85164        3.37843        0.02968
C         -2.00570        2.13900        0.01190
C         -2.79165        1.05322       -0.00723
H         -2.67437        3.96621        0.93493
H         -2.67019        3.99475       -0.85553
H         -5.01029        0.78169       -0.01673
H         -5.14425        3.38995        0.02452
H         -2.46332        0.02509       -0.02285
H         -0.92637        2.13440        0.01434
