 Entering Gaussian System, Link 0=g16
 Initial command:
 /gpfs/softs/softwares/Gaussian/g16/l1.exe "/gpfs/workdir/jacovellau/metalcarbide/6-31G/CCS/Gau-168227.inp" -scrdir="/gpfs/workdir/jacovellau/metalcarbide/6-31G/CCS/"
 Entering Link 1 = /gpfs/softs/softwares/Gaussian/g16/l1.exe PID=    168228.
  
 Copyright (c) 1988-2017, Gaussian, Inc.  All Rights Reserved.
  
 This is part of the Gaussian(R) 16 program.  It is based on
 the Gaussian(R) 09 system (copyright 2009, Gaussian, Inc.),
 the Gaussian(R) 03 system (copyright 2003, Gaussian, Inc.),
 the Gaussian(R) 98 system (copyright 1998, Gaussian, Inc.),
 the Gaussian(R) 94 system (copyright 1995, Gaussian, Inc.),
 the Gaussian 92(TM) system (copyright 1992, Gaussian, Inc.),
 the Gaussian 90(TM) system (copyright 1990, Gaussian, Inc.),
 the Gaussian 88(TM) system (copyright 1988, Gaussian, Inc.),
 the Gaussian 86(TM) system (copyright 1986, Carnegie Mellon
 University), and the Gaussian 82(TM) system (copyright 1983,
 Carnegie Mellon University). Gaussian is a federally registered
 trademark of Gaussian, Inc.
  
 This software contains proprietary and confidential information,
 including trade secrets, belonging to Gaussian, Inc.
  
 This software is provided under written license and may be
 used, copied, transmitted, or stored only in accord with that
 written license.
  
 The following legend is applicable only to US Government
 contracts under FAR:
  
                    RESTRICTED RIGHTS LEGEND
  
 Use, reproduction and disclosure by the US Government is
 subject to restrictions as set forth in subparagraphs (a)
 and (c) of the Commercial Computer Software - Restricted
 Rights clause in FAR 52.227-19.
  
 Gaussian, Inc.
 340 Quinnipiac St., Bldg. 40, Wallingford CT 06492
  
  
 ---------------------------------------------------------------
 Warning -- This program may not be used in any manner that
 competes with the business of Gaussian, Inc. or will provide
 assistance to any competitor of Gaussian, Inc.  The licensee
 of this program is prohibited from giving any competitor of
 Gaussian, Inc. access to this program.  By using this program,
 the user acknowledges that Gaussian, Inc. is engaged in the
 business of creating and licensing software in the field of
 computational chemistry and represents and warrants to the
 licensee that it is not a competitor of Gaussian, Inc. and that
 it will not use this program in any manner prohibited above.
 ---------------------------------------------------------------
  

 Cite this work as:
 Gaussian 16, Revision B.01,
 M. J. Frisch, G. W. Trucks, H. B. Schlegel, G. E. Scuseria, 
 M. A. Robb, J. R. Cheeseman, G. Scalmani, V. Barone, 
 G. A. Petersson, H. Nakatsuji, X. Li, M. Caricato, A. V. Marenich, 
 J. Bloino, B. G. Janesko, R. Gomperts, B. Mennucci, H. P. Hratchian, 
 J. V. Ortiz, A. F. Izmaylov, J. L. Sonnenberg, D. Williams-Young, 
 F. Ding, F. Lipparini, F. Egidi, J. Goings, B. Peng, A. Petrone, 
 T. Henderson, D. Ranasinghe, V. G. Zakrzewski, J. Gao, N. Rega, 
 G. Zheng, W. Liang, M. Hada, M. Ehara, K. Toyota, R. Fukuda, 
 J. Hasegawa, M. Ishida, T. Nakajima, Y. Honda, O. Kitao, H. Nakai, 
 T. Vreven, K. Throssell, J. A. Montgomery, Jr., J. E. Peralta, 
 F. Ogliaro, M. J. Bearpark, J. J. Heyd, E. N. Brothers, K. N. Kudin, 
 V. N. Staroverov, T. A. Keith, R. Kobayashi, J. Normand, 
 K. Raghavachari, A. P. Rendell, J. C. Burant, S. S. Iyengar, 
 J. Tomasi, M. Cossi, J. M. Millam, M. Klene, C. Adamo, R. Cammi, 
 J. W. Ochterski, R. L. Martin, K. Morokuma, O. Farkas, 
 J. B. Foresman, and D. J. Fox, Gaussian, Inc., Wallingford CT, 2016.
 
 ******************************************
 Gaussian 16:  ES64L-G16RevB.01 20-Dec-2017
                17-Oct-2024 
 ******************************************
 %nprocshared=8
 Will use up to    8 processors via shared memory.
 ----------------------------
 #p b3lyp/6-31g pop=hirshfeld
 ----------------------------
 1/38=1,172=1/1;
 2/12=2,17=6,18=5,40=1/2;
 3/5=1,6=6,11=2,25=1,30=1,74=-5/1,2,3;
 4//1;
 5/5=2,38=5/2;
 6/7=2,8=2,9=2,10=2,28=1,79=1/1;
 99/5=1,9=1/99;
 Leave Link    1 at Thu Oct 17 13:15:32 2024, MaxMem=           0 cpu:               0.1 elap:               0.2
 (Enter /gpfs/softs/softwares/Gaussian/g16/l101.exe)
 -------------------
 Title Card Required
 -------------------
 Symbolic Z-matrix:
 Charge =  1 Multiplicity = 2
 C                    -1.24542   1.40944  -3.03209 
 C                    -2.48364   1.16285  -2.3065 
 C                    -2.80311   1.92782  -1.17803 
 C                    -1.87678   2.96735  -0.72983 
 C                    -0.69248   3.21215  -1.43357 
 C                    -0.36579   2.42353  -2.61909 
 C                    -0.72845   0.11912  -3.48469 
 C                    -1.65737  -0.92339  -3.05067 
 C                    -2.7377   -0.27909  -2.31709 
 C                    -3.27689  -0.89079  -1.17868 
 C                    -3.37666   1.29176   0.00019 
 C                    -1.87669   2.96735   0.73005 
 C                    -0.69232   3.21215   1.43365 
 C                     0.54745   3.45681   0.69978 
 C                     0.54737   3.45681  -0.69984 
 C                     1.63726   2.81601  -1.43603 
 C                     1.06971   2.18313  -2.62149 
 C                     1.56578   0.92936  -3.03198 
 C                     0.65121  -0.11703  -3.48803 
 C                    -1.15031  -2.15527  -2.60838 
 C                     0.28491  -2.40071  -2.6062 
 C                     1.18093  -1.41003  -3.05682 
 C                     2.41437  -1.16604  -2.32498 
 C                     2.65313   0.28681  -2.30853 
 C                     3.22297   0.90488  -1.17866 
 C                     2.68017   2.19381  -0.72966 
 C                     2.68026   2.19381   0.72935 
 C                     1.63742   2.81601   1.43584 
 C                    -2.80297   1.92782   1.17835 
 C                     0.65161  -0.11703   3.48795 
 C                    -0.72805   0.11911   3.48478 
 C                    -1.65702  -0.92339   3.05085 
 C                    -1.15001  -2.15527   2.60851 
 C                     0.2852   -2.40071   2.60616 
 C                     2.41464  -1.16604   2.3247 
 C                     2.6534    0.28681   2.30823 
 C                     1.56613   0.92935   3.0318 
 C                     1.07001   2.18312   2.62136 
 C                    -0.36549   2.42352   2.61914 
 C                    -1.24507   1.40944   3.03223 
 C                    -2.73743  -0.27909   2.31741 
 C                    -3.27675  -0.89079   1.17905 
 C                    -2.76361  -2.18561   0.7304 
 C                    -1.72339  -2.80357   1.4305 
 C                    -0.6363   -3.4513    0.6989 
 C                     0.60741  -3.19705   1.42763 
 C                     1.805    -2.97787   0.72876 
 C                     2.72354  -1.92334   1.17896 
 C                     3.22311   0.90488   1.17829 
 C                     3.57072   0.1162   -0.00021 
 C                     3.2996   -1.28217  -0.00019 
 C                     2.72341  -1.92334  -1.17928 
 C                     1.80491  -2.97787  -0.72897 
 C                     0.60725  -3.19705  -1.42771 
 C                    -0.63638  -3.4513   -0.69883 
 C                    -1.72355  -2.80357  -1.4303 
 C                    -2.76369  -2.18561  -0.73008 
 C                    -2.48338   1.16285   2.30679 
 C                    -3.59677  -0.09627   0.00021 
 C                     1.18128  -1.41003   3.05668 
 Ca                    0.68799  -0.07603  -0.00003 
 
 ITRead=  0  0  0  0  0  0  0  0  0  0  0  0  0  0  0  0  0  0  0  0
 ITRead=  0  0  0  0  0  0  0  0  0  0  0  0  0  0  0  0  0  0  0  0
 ITRead=  0  0  0  0  0  0  0  0  0  0  0  0  0  0  0  0  0  0  0  0
 ITRead=  0
 MicOpt= -1 -1 -1 -1 -1 -1 -1 -1 -1 -1 -1 -1 -1 -1 -1 -1 -1 -1 -1 -1
 MicOpt= -1 -1 -1 -1 -1 -1 -1 -1 -1 -1 -1 -1 -1 -1 -1 -1 -1 -1 -1 -1
 MicOpt= -1 -1 -1 -1 -1 -1 -1 -1 -1 -1 -1 -1 -1 -1 -1 -1 -1 -1 -1 -1
 MicOpt= -1
 NAtoms=     61 NQM=       61 NQMF=       0 NMMI=      0 NMMIF=      0
                NMic=       0 NMicF=      0.
                    Isotopes and Nuclear Properties:
 (Nuclear quadrupole moments (NQMom) in fm**2, nuclear magnetic moments (NMagM)
  in nuclear magnetons)

  Atom         1           2           3           4           5           6           7           8           9          10
 IAtWgt=          12          12          12          12          12          12          12          12          12          12
 AtmWgt=  12.0000000  12.0000000  12.0000000  12.0000000  12.0000000  12.0000000  12.0000000  12.0000000  12.0000000  12.0000000
 NucSpn=           0           0           0           0           0           0           0           0           0           0
 AtZEff=  -0.0000000  -0.0000000  -0.0000000  -0.0000000  -0.0000000  -0.0000000  -0.0000000  -0.0000000  -0.0000000  -0.0000000
 NQMom=    0.0000000   0.0000000   0.0000000   0.0000000   0.0000000   0.0000000   0.0000000   0.0000000   0.0000000   0.0000000
 NMagM=    0.0000000   0.0000000   0.0000000   0.0000000   0.0000000   0.0000000   0.0000000   0.0000000   0.0000000   0.0000000
 AtZNuc=   6.0000000   6.0000000   6.0000000   6.0000000   6.0000000   6.0000000   6.0000000   6.0000000   6.0000000   6.0000000

  Atom        11          12          13          14          15          16          17          18          19          20
 IAtWgt=          12          12          12          12          12          12          12          12          12          12
 AtmWgt=  12.0000000  12.0000000  12.0000000  12.0000000  12.0000000  12.0000000  12.0000000  12.0000000  12.0000000  12.0000000
 NucSpn=           0           0           0           0           0           0           0           0           0           0
 AtZEff=  -0.0000000  -0.0000000  -0.0000000  -0.0000000  -0.0000000  -0.0000000  -0.0000000  -0.0000000  -0.0000000  -0.0000000
 NQMom=    0.0000000   0.0000000   0.0000000   0.0000000   0.0000000   0.0000000   0.0000000   0.0000000   0.0000000   0.0000000
 NMagM=    0.0000000   0.0000000   0.0000000   0.0000000   0.0000000   0.0000000   0.0000000   0.0000000   0.0000000   0.0000000
 AtZNuc=   6.0000000   6.0000000   6.0000000   6.0000000   6.0000000   6.0000000   6.0000000   6.0000000   6.0000000   6.0000000

  Atom        21          22          23          24          25          26          27          28          29          30
 IAtWgt=          12          12          12          12          12          12          12          12          12          12
 AtmWgt=  12.0000000  12.0000000  12.0000000  12.0000000  12.0000000  12.0000000  12.0000000  12.0000000  12.0000000  12.0000000
 NucSpn=           0           0           0           0           0           0           0           0           0           0
 AtZEff=  -0.0000000  -0.0000000  -0.0000000  -0.0000000  -0.0000000  -0.0000000  -0.0000000  -0.0000000  -0.0000000  -0.0000000
 NQMom=    0.0000000   0.0000000   0.0000000   0.0000000   0.0000000   0.0000000   0.0000000   0.0000000   0.0000000   0.0000000
 NMagM=    0.0000000   0.0000000   0.0000000   0.0000000   0.0000000   0.0000000   0.0000000   0.0000000   0.0000000   0.0000000
 AtZNuc=   6.0000000   6.0000000   6.0000000   6.0000000   6.0000000   6.0000000   6.0000000   6.0000000   6.0000000   6.0000000

  Atom        31          32          33          34          35          36          37          38          39          40
 IAtWgt=          12          12          12          12          12          12          12          12          12          12
 AtmWgt=  12.0000000  12.0000000  12.0000000  12.0000000  12.0000000  12.0000000  12.0000000  12.0000000  12.0000000  12.0000000
 NucSpn=           0           0           0           0           0           0           0           0           0           0
 AtZEff=  -0.0000000  -0.0000000  -0.0000000  -0.0000000  -0.0000000  -0.0000000  -0.0000000  -0.0000000  -0.0000000  -0.0000000
 NQMom=    0.0000000   0.0000000   0.0000000   0.0000000   0.0000000   0.0000000   0.0000000   0.0000000   0.0000000   0.0000000
 NMagM=    0.0000000   0.0000000   0.0000000   0.0000000   0.0000000   0.0000000   0.0000000   0.0000000   0.0000000   0.0000000
 AtZNuc=   6.0000000   6.0000000   6.0000000   6.0000000   6.0000000   6.0000000   6.0000000   6.0000000   6.0000000   6.0000000

  Atom        41          42          43          44          45          46          47          48          49          50
 IAtWgt=          12          12          12          12          12          12          12          12          12          12
 AtmWgt=  12.0000000  12.0000000  12.0000000  12.0000000  12.0000000  12.0000000  12.0000000  12.0000000  12.0000000  12.0000000
 NucSpn=           0           0           0           0           0           0           0           0           0           0
 AtZEff=  -0.0000000  -0.0000000  -0.0000000  -0.0000000  -0.0000000  -0.0000000  -0.0000000  -0.0000000  -0.0000000  -0.0000000
 NQMom=    0.0000000   0.0000000   0.0000000   0.0000000   0.0000000   0.0000000   0.0000000   0.0000000   0.0000000   0.0000000
 NMagM=    0.0000000   0.0000000   0.0000000   0.0000000   0.0000000   0.0000000   0.0000000   0.0000000   0.0000000   0.0000000
 AtZNuc=   6.0000000   6.0000000   6.0000000   6.0000000   6.0000000   6.0000000   6.0000000   6.0000000   6.0000000   6.0000000

  Atom        51          52          53          54          55          56          57          58          59          60
 IAtWgt=          12          12          12          12          12          12          12          12          12          12
 AtmWgt=  12.0000000  12.0000000  12.0000000  12.0000000  12.0000000  12.0000000  12.0000000  12.0000000  12.0000000  12.0000000
 NucSpn=           0           0           0           0           0           0           0           0           0           0
 AtZEff=  -0.0000000  -0.0000000  -0.0000000  -0.0000000  -0.0000000  -0.0000000  -0.0000000  -0.0000000  -0.0000000  -0.0000000
 NQMom=    0.0000000   0.0000000   0.0000000   0.0000000   0.0000000   0.0000000   0.0000000   0.0000000   0.0000000   0.0000000
 NMagM=    0.0000000   0.0000000   0.0000000   0.0000000   0.0000000   0.0000000   0.0000000   0.0000000   0.0000000   0.0000000
 AtZNuc=   6.0000000   6.0000000   6.0000000   6.0000000   6.0000000   6.0000000   6.0000000   6.0000000   6.0000000   6.0000000

  Atom        61
 IAtWgt=          40
 AtmWgt=  39.9625907
 NucSpn=           0
 AtZEff=  -0.0000000
 NQMom=    0.0000000
 NMagM=    0.0000000
 AtZNuc=  20.0000000
 Leave Link  101 at Thu Oct 17 13:15:33 2024, MaxMem=   104857600 cpu:               0.3 elap:               0.2
 (Enter /gpfs/softs/softwares/Gaussian/g16/l202.exe)
 Stoichiometry    C60Ca(1+,2)
 Framework group  C1[X(C60Ca)]
 Deg. of freedom   177
 Full point group                 C1      NOp   1
 Largest Abelian subgroup         C1      NOp   1
 Largest concise Abelian subgroup C1      NOp   1
                         Standard orientation:                         
 ---------------------------------------------------------------------
 Center     Atomic      Atomic             Coordinates (Angstroms)
 Number     Number       Type             X           Y           Z
 ---------------------------------------------------------------------
      1          6           0       -1.245430    1.409435   -3.032088
      2          6           0       -2.483649    1.162833   -2.306500
      3          6           0       -2.803121    1.927804   -1.178025
      4          6           0       -1.876800    2.967336   -0.729831
      5          6           0       -0.692502    3.212142   -1.433565
      6          6           0       -0.365812    2.423522   -2.619091
      7          6           0       -0.728451    0.119110   -3.484693
      8          6           0       -1.657363   -0.923397   -3.050667
      9          6           0       -2.737695   -0.279105   -2.317094
     10          6           0       -3.276879   -0.890810   -1.178676
     11          6           0       -3.376673    1.291733    0.000194
     12          6           0       -1.876716    2.967336    0.730049
     13          6           0       -0.692338    3.212142    1.433647
     14          6           0        0.547421    3.456817    0.699782
     15          6           0        0.547341    3.456817   -0.699842
     16          6           0        1.637235    2.816020   -1.436028
     17          6           0        1.069692    2.183134   -2.621485
     18          6           0        1.565775    0.929368   -3.031977
     19          6           0        0.651211   -0.117026   -3.488029
     20          6           0       -1.150290   -2.155279   -2.608378
     21          6           0        0.284922   -2.400705   -2.606198
     22          6           0        1.180935   -1.410021   -3.056816
     23          6           0        2.414378   -1.166023   -2.324980
     24          6           0        2.653128    0.286826   -2.308532
     25          6           0        3.222965    0.904899   -1.178663
     26          6           0        2.680157    2.193824   -0.729658
     27          6           0        2.680241    2.193824    0.729351
     28          6           0        1.637400    2.816019    1.435841
     29          6           0       -2.802985    1.927804    1.178348
     30          6           0        0.651613   -0.117028    3.487954
     31          6           0       -0.728050    0.119107    3.484776
     32          6           0       -1.657012   -0.923400    3.050855
     33          6           0       -1.149990   -2.155281    2.608507
     34          6           0        0.285221   -2.400707    2.606162
     35          6           0        2.414646   -1.166025    2.324701
     36          6           0        2.653394    0.286824    2.308227
     37          6           0        1.566124    0.929365    3.031797
     38          6           0        1.069993    2.183132    2.621363
     39          6           0       -0.365511    2.423520    2.619135
     40          6           0       -1.245082    1.409433    3.032231
     41          6           0       -2.737428   -0.279107    2.317408
     42          6           0       -3.276743   -0.890811    1.179051
     43          6           0       -2.763589   -2.185627    0.730398
     44          6           0       -1.723365   -2.803581    1.430496
     45          6           0       -0.636271   -3.451306    0.698897
     46          6           0        0.607434   -3.197050    1.427633
     47          6           0        1.805019   -2.977859    0.728759
     48          6           0        2.723558   -1.923316    1.178960
     49          6           0        3.223101    0.904898    1.178292
     50          6           0        3.570720    0.116223   -0.000206
     51          6           0        3.299613   -1.282147   -0.000191
     52          6           0        2.723423   -1.923315   -1.179276
     53          6           0        1.804935   -2.977859   -0.728970
     54          6           0        0.607270   -3.197049   -1.427707
     55          6           0       -0.636351   -3.451305   -0.698828
     56          6           0       -1.723529   -2.803580   -1.430302
     57          6           0       -2.763673   -2.185627   -0.730083
     58          6           0       -2.483384    1.162831    2.306785
     59          6           0       -3.596770   -0.096297    0.000206
     60          6           0        1.181287   -1.410023    3.056679
     61         20           0        0.687990   -0.076024   -0.000032
 ---------------------------------------------------------------------
 Rotational constants (GHZ):           0.0826557           0.0824946           0.0822264
 Leave Link  202 at Thu Oct 17 13:15:33 2024, MaxMem=   104857600 cpu:               0.2 elap:               0.1
 (Enter /gpfs/softs/softwares/Gaussian/g16/l301.exe)
 Standard basis: 6-31G (6D, 7F)
 Ernie: Thresh=  0.10000D-02 Tol=  0.10000D-05 Strict=F.
 There are   557 symmetry adapted cartesian basis functions of A   symmetry.
 There are   557 symmetry adapted basis functions of A   symmetry.
   557 basis functions,  1390 primitive gaussians,   557 cartesian basis functions
   190 alpha electrons      189 beta electrons
       nuclear repulsion energy      9348.5437614742 Hartrees.
 IExCor=  402 DFT=T Ex+Corr=B3LYP ExCW=0 ScaHFX=  0.200000
 ScaDFX=  0.800000  0.720000  1.000000  0.810000 ScalE2=  1.000000  1.000000
 IRadAn=      5 IRanWt=     -1 IRanGd=            0 ICorTp=0 IEmpDi=  4
 NAtoms=   61 NActive=   61 NUniq=   61 SFac= 1.00D+00 NAtFMM=   60 NAOKFM=T Big=T
 Integral buffers will be    131072 words long.
 Raffenetti 2 integral format.
 Two-electron integral symmetry is turned on.
 Leave Link  301 at Thu Oct 17 13:15:33 2024, MaxMem=   104857600 cpu:               0.1 elap:               0.1
 (Enter /gpfs/softs/softwares/Gaussian/g16/l302.exe)
 NPDir=0 NMtPBC=     1 NCelOv=     1 NCel=       1 NClECP=     1 NCelD=      1
         NCelK=      1 NCelE2=     1 NClLst=     1 CellRange=     0.0.
 One-electron integrals computed using PRISM.
 One-electron integral symmetry used in STVInt
 NBasis=   557 RedAO= T EigKep=  4.40D-04  NBF=   557
 NBsUse=   557 1.00D-06 EigRej= -1.00D+00 NBFU=   557
 Precomputing XC quadrature grid using
 IXCGrd= 4 IRadAn=           5 IRanWt=          -1 IRanGd=           0 AccXCQ= 0.00D+00.
 Generated NRdTot=       0 NPtTot=           0 NUsed=           0 NTot=          32
 NSgBfM=   552   552   552   552   552 MxSgAt=    61 MxSgA2=    61.
 Leave Link  302 at Thu Oct 17 13:15:37 2024, MaxMem=   104857600 cpu:              29.6 elap:               4.6
 (Enter /gpfs/softs/softwares/Gaussian/g16/l303.exe)
 DipDrv:  MaxL=1.
 Leave Link  303 at Thu Oct 17 13:15:38 2024, MaxMem=   104857600 cpu:               0.3 elap:               0.2
 (Enter /gpfs/softs/softwares/Gaussian/g16/l401.exe)
 ExpMin= 2.60D-02 ExpMax= 3.53D+04 ExpMxC= 5.30D+03 IAcc=3 IRadAn=         5 AccDes= 0.00D+00
 Harris functional with IExCor=  402 and IRadAn=       5 diagonalized for initial guess.
 HarFok:  IExCor=  402 AccDes= 0.00D+00 IRadAn=         5 IDoV= 1 UseB2=F ITyADJ=14
 ICtDFT=  3500011 ScaDFX=  1.000000  1.000000  1.000000  1.000000
 FoFCou: FMM=F IPFlag=           0 FMFlag=      100000 FMFlg1=        2001
         NFxFlg=           0 DoJE=T BraDBF=F KetDBF=T FulRan=T
         wScrn=  0.000000 ICntrl=       500 IOpCl=  0 I1Cent=   200000004 NGrid=           0
         NMat0=    1 NMatS0=      1 NMatT0=    0 NMatD0=    1 NMtDS0=    0 NMtDT0=    0
 Petite list used in FoFCou.
 Harris En= -2962.27459016196    
 JPrj=0 DoOrth=F DoCkMO=F.
 Initial guess <Sx>= 0.0000 <Sy>= 0.0000 <Sz>= 0.5000 <S**2>= 0.7500 S= 0.5000
 Leave Link  401 at Thu Oct 17 13:16:05 2024, MaxMem=   104857600 cpu:             211.3 elap:              27.4
 (Enter /gpfs/softs/softwares/Gaussian/g16/l502.exe)
 Integral symmetry usage will be decided dynamically.
 UHF open shell SCF:
 Using DIIS extrapolation, IDIIS=  1040.
 NGot=   104857600 LenX=   104226261 LenY=   103915455
 Requested convergence on RMS density matrix=1.00D-08 within 128 cycles.
 Requested convergence on MAX density matrix=1.00D-06.
 Requested convergence on             energy=1.00D-06.
 No special actions if energy rises.
 Fock matrices will be formed incrementally for  20 cycles.

 Cycle   1  Pass 1  IDiag  1:
 FoFJK:  IHMeth= 1 ICntrl=       0 DoSepK=F KAlg= 0 I1Cent=           0 FoldK=F
 IRaf= 990000000 NMat=       1 IRICut=       1 DoRegI=T DoRafI=F ISym2E= 0 IDoP0=0 IntGTp=1.
 FoFCou: FMM=T IPFlag=           0 FMFlag=      100000 FMFlg1=        2001
         NFxFlg=           0 DoJE=F BraDBF=F KetDBF=F FulRan=T
         wScrn=  0.000000 ICntrl=         0 IOpCl=  1 I1Cent=           0 NGrid=           0
         NMat0=    1 NMatS0=      1 NMatT0=    0 NMatD0=    1 NMtDS0=    0 NMtDT0=    0
 Symmetry not used in FoFCou.
 FMM levels:  10  Number of levels for PrismC:   9
 E= -2962.48406337497    
 DIIS: error= 2.86D-02 at cycle   1 NSaved=   1.
 NSaved= 1 IEnMin= 1 EnMin= -2962.48406337497     IErMin= 1 ErrMin= 2.86D-02
 ErrMax= 2.86D-02  0.00D+00 EMaxC= 1.00D-01 BMatC= 1.31D+00 BMatP= 1.31D+00
 IDIUse=3 WtCom= 7.14D-01 WtEn= 2.86D-01
 Coeff-Com:  0.100D+01
 Coeff-En:   0.100D+01
 Coeff:      0.100D+01
 Gap=     0.024 Goal=   None    Shift=    0.000
 Gap=     0.103 Goal=   None    Shift=    0.000
 GapD=    0.024 DampG=0.250 DampE=0.500 DampFc=0.2500 IDamp=-1.
 Damping current iteration by 2.50D-01
 RMSDP=3.40D-03 MaxDP=7.17D-01              OVMax= 9.84D-01

 Cycle   2  Pass 1  IDiag  1:
 RMSU=  8.33D-04    CP:  9.92D-01
 E= -2962.60973131662     Delta-E=       -0.125667941647 Rises=F Damp=T
 DIIS: error= 1.79D-02 at cycle   2 NSaved=   2.
 NSaved= 2 IEnMin= 2 EnMin= -2962.60973131662     IErMin= 2 ErrMin= 1.79D-02
 ErrMax= 1.79D-02  0.00D+00 EMaxC= 1.00D-01 BMatC= 5.42D-01 BMatP= 1.31D+00
 IDIUse=3 WtCom= 8.21D-01 WtEn= 1.79D-01
 Coeff-Com: -0.165D+01 0.265D+01
 Coeff-En:   0.000D+00 0.100D+01
 Coeff:     -0.135D+01 0.235D+01
 Gap=    -0.008 Goal=   None    Shift=    0.000
 Gap=     0.140 Goal=   None    Shift=    0.000
 RMSDP=1.77D-03 MaxDP=1.11D-01 DE=-1.26D-01 OVMax= 9.09D-01

 Cycle   3  Pass 1  IDiag  1:
 RMSU=  1.65D-03    CP:  9.77D-01  1.70D+00
 E= -2962.80034091569     Delta-E=       -0.190609599073 Rises=F Damp=F
 DIIS: error= 1.58D-02 at cycle   3 NSaved=   3.
 NSaved= 3 IEnMin= 3 EnMin= -2962.80034091569     IErMin= 3 ErrMin= 1.58D-02
 ErrMax= 1.58D-02  0.00D+00 EMaxC= 1.00D-01 BMatC= 2.28D-01 BMatP= 5.42D-01
 IDIUse=3 WtCom= 8.42D-01 WtEn= 1.58D-01
 Coeff-Com: -0.121D+01 0.190D+01 0.308D+00
 Coeff-En:   0.000D+00 0.000D+00 0.100D+01
 Coeff:     -0.102D+01 0.160D+01 0.417D+00
 Gap=     0.009 Goal=   None    Shift=    0.000
 Gap=     0.120 Goal=   None    Shift=    0.000
 RMSDP=1.64D-03 MaxDP=1.85D-01 DE=-1.91D-01 OVMax= 4.31D-01

 Cycle   4  Pass 1  IDiag  1:
 RMSU=  1.12D-03    CP:  9.83D-01  2.36D+00  3.55D-01
 E= -2962.85392837474     Delta-E=       -0.053587459053 Rises=F Damp=F
 DIIS: error= 1.01D-02 at cycle   4 NSaved=   4.
 NSaved= 4 IEnMin= 4 EnMin= -2962.85392837474     IErMin= 4 ErrMin= 1.01D-02
 ErrMax= 1.01D-02  0.00D+00 EMaxC= 1.00D-01 BMatC= 7.04D-02 BMatP= 2.28D-01
 IDIUse=3 WtCom= 8.99D-01 WtEn= 1.01D-01
 Coeff-Com: -0.349D+00 0.542D+00 0.331D+00 0.476D+00
 Coeff-En:   0.000D+00 0.000D+00 0.311D+00 0.689D+00
 Coeff:     -0.314D+00 0.487D+00 0.329D+00 0.497D+00
 Gap=     0.027 Goal=   None    Shift=    0.000
 Gap=     0.104 Goal=   None    Shift=    0.000
 RMSDP=7.31D-04 MaxDP=7.87D-02 DE=-5.36D-02 OVMax= 1.76D-01

 Cycle   5  Pass 1  IDiag  1:
 RMSU=  3.20D-04    CP:  9.83D-01  2.11D+00  6.46D-01  6.44D-01
 E= -2962.87692345891     Delta-E=       -0.022995084171 Rises=F Damp=F
 DIIS: error= 3.83D-03 at cycle   5 NSaved=   5.
 NSaved= 5 IEnMin= 5 EnMin= -2962.87692345891     IErMin= 5 ErrMin= 3.83D-03
 ErrMax= 3.83D-03  0.00D+00 EMaxC= 1.00D-01 BMatC= 8.33D-03 BMatP= 7.04D-02
 IDIUse=3 WtCom= 9.62D-01 WtEn= 3.83D-02
 Coeff-Com: -0.384D-01 0.493D-01 0.180D+00 0.383D+00 0.425D+00
 Coeff-En:   0.000D+00 0.000D+00 0.000D+00 0.123D+00 0.877D+00
 Coeff:     -0.369D-01 0.474D-01 0.174D+00 0.373D+00 0.443D+00
 Gap=     0.031 Goal=   None    Shift=    0.000
 Gap=     0.103 Goal=   None    Shift=    0.000
 RMSDP=2.39D-04 MaxDP=9.37D-03 DE=-2.30D-02 OVMax= 4.47D-02

 Cycle   6  Pass 1  IDiag  1:
 RMSU=  1.03D-04    CP:  9.82D-01  2.11D+00  6.13D-01  7.11D-01  3.95D-01
 E= -2962.87958067423     Delta-E=       -0.002657215320 Rises=F Damp=F
 DIIS: error= 1.11D-03 at cycle   6 NSaved=   6.
 NSaved= 6 IEnMin= 6 EnMin= -2962.87958067423     IErMin= 6 ErrMin= 1.11D-03
 ErrMax= 1.11D-03  0.00D+00 EMaxC= 1.00D-01 BMatC= 1.23D-03 BMatP= 8.33D-03
 IDIUse=3 WtCom= 9.89D-01 WtEn= 1.11D-02
 Coeff-Com: -0.155D-01 0.162D-01 0.741D-01 0.183D+00 0.316D+00 0.426D+00
 Coeff-En:   0.000D+00 0.000D+00 0.000D+00 0.000D+00 0.141D+00 0.859D+00
 Coeff:     -0.153D-01 0.161D-01 0.733D-01 0.181D+00 0.314D+00 0.431D+00
 Gap=     0.032 Goal=   None    Shift=    0.000
 Gap=     0.100 Goal=   None    Shift=    0.000
 RMSDP=8.12D-05 MaxDP=6.53D-03 DE=-2.66D-03 OVMax= 1.59D-02

 Cycle   7  Pass 1  IDiag  1:
 RMSU=  5.75D-05    CP:  9.82D-01  2.10D+00  6.20D-01  6.97D-01  5.05D-01
                    CP:  6.21D-01
 E= -2962.87996025325     Delta-E=       -0.000379579016 Rises=F Damp=F
 DIIS: error= 3.19D-04 at cycle   7 NSaved=   7.
 NSaved= 7 IEnMin= 7 EnMin= -2962.87996025325     IErMin= 7 ErrMin= 3.19D-04
 ErrMax= 3.19D-04  0.00D+00 EMaxC= 1.00D-01 BMatC= 1.92D-04 BMatP= 1.23D-03
 IDIUse=3 WtCom= 9.97D-01 WtEn= 3.19D-03
 Coeff-Com: -0.107D-01 0.134D-01-0.120D-01-0.410D-02 0.971D-01 0.328D+00
 Coeff-Com:  0.588D+00
 Coeff-En:   0.000D+00 0.000D+00 0.000D+00 0.000D+00 0.000D+00 0.105D+00
 Coeff-En:   0.895D+00
 Coeff:     -0.107D-01 0.133D-01-0.119D-01-0.408D-02 0.968D-01 0.327D+00
 Coeff:      0.589D+00
 Gap=     0.032 Goal=   None    Shift=    0.000
 Gap=     0.100 Goal=   None    Shift=    0.000
 RMSDP=3.07D-05 MaxDP=3.75D-03 DE=-3.80D-04 OVMax= 7.48D-03

 Cycle   8  Pass 1  IDiag  1:
 RMSU=  2.40D-05    CP:  9.82D-01  2.09D+00  6.22D-01  6.98D-01  5.11D-01
                    CP:  7.69D-01  9.23D-01
 E= -2962.88002273093     Delta-E=       -0.000062477682 Rises=F Damp=F
 DIIS: error= 9.27D-05 at cycle   8 NSaved=   8.
 NSaved= 8 IEnMin= 8 EnMin= -2962.88002273093     IErMin= 8 ErrMin= 9.27D-05
 ErrMax= 9.27D-05  0.00D+00 EMaxC= 1.00D-01 BMatC= 1.77D-05 BMatP= 1.92D-04
 IDIUse=1 WtCom= 1.00D+00 WtEn= 0.00D+00
 Coeff-Com: -0.744D-02 0.941D-02-0.147D-01-0.153D-01 0.434D-01 0.182D+00
 Coeff-Com:  0.329D+00 0.474D+00
 Coeff:     -0.744D-02 0.941D-02-0.147D-01-0.153D-01 0.434D-01 0.182D+00
 Coeff:      0.329D+00 0.474D+00
 Gap=     0.032 Goal=   None    Shift=    0.000
 Gap=     0.100 Goal=   None    Shift=    0.000
 RMSDP=1.40D-05 MaxDP=2.51D-03 DE=-6.25D-05 OVMax= 4.65D-03

 Cycle   9  Pass 1  IDiag  1:
 RMSU=  8.40D-06    CP:  9.83D-01  2.08D+00  6.24D-01  6.97D-01  5.15D-01
                    CP:  7.96D-01  1.00D+00  1.27D+00
 E= -2962.88003008525     Delta-E=       -0.000007354312 Rises=F Damp=F
 DIIS: error= 7.49D-05 at cycle   9 NSaved=   9.
 NSaved= 9 IEnMin= 9 EnMin= -2962.88003008525     IErMin= 9 ErrMin= 7.49D-05
 ErrMax= 7.49D-05  0.00D+00 EMaxC= 1.00D-01 BMatC= 7.42D-06 BMatP= 1.77D-05
 IDIUse=1 WtCom= 1.00D+00 WtEn= 0.00D+00
 Coeff-Com: -0.225D-02 0.275D-02-0.402D-02-0.340D-02-0.174D-01-0.589D-01
 Coeff-Com: -0.188D+00-0.179D-01 0.129D+01
 Coeff:     -0.225D-02 0.275D-02-0.402D-02-0.340D-02-0.174D-01-0.589D-01
 Coeff:     -0.188D+00-0.179D-01 0.129D+01
 Gap=     0.032 Goal=   None    Shift=    0.000
 Gap=     0.100 Goal=   None    Shift=    0.000
 RMSDP=2.98D-05 MaxDP=5.76D-03 DE=-7.35D-06 OVMax= 1.17D-02

 Cycle  10  Pass 1  IDiag  1:
 RMSU=  5.90D-06    CP:  9.83D-01  2.06D+00  6.26D-01  6.95D-01  5.14D-01
                    CP:  8.54D-01  1.21D+00  2.08D+00  1.95D+00
 E= -2962.88003944049     Delta-E=       -0.000009355243 Rises=F Damp=F
 DIIS: error= 4.72D-05 at cycle  10 NSaved=  10.
 NSaved=10 IEnMin=10 EnMin= -2962.88003944049     IErMin=10 ErrMin= 4.72D-05
 ErrMax= 4.72D-05  0.00D+00 EMaxC= 1.00D-01 BMatC= 3.50D-06 BMatP= 7.42D-06
 IDIUse=1 WtCom= 1.00D+00 WtEn= 0.00D+00
 Coeff-Com: -0.144D-02 0.176D-02-0.747D-03 0.907D-03-0.168D-01-0.691D-01
 Coeff-Com: -0.202D+00-0.170D+00 0.888D+00 0.569D+00
 Coeff:     -0.144D-02 0.176D-02-0.747D-03 0.907D-03-0.168D-01-0.691D-01
 Coeff:     -0.202D+00-0.170D+00 0.888D+00 0.569D+00
 Gap=     0.032 Goal=   None    Shift=    0.000
 Gap=     0.100 Goal=   None    Shift=    0.000
 RMSDP=1.43D-05 MaxDP=2.70D-03 DE=-9.36D-06 OVMax= 5.68D-03

 Cycle  11  Pass 1  IDiag  1:
 RMSU=  3.60D-06    CP:  9.83D-01  2.05D+00  6.28D-01  6.94D-01  5.12D-01
                    CP:  8.77D-01  1.31D+00  2.45D+00  2.46D+00  1.09D+00
 E= -2962.88004230744     Delta-E=       -0.000002866949 Rises=F Damp=F
 DIIS: error= 3.33D-05 at cycle  11 NSaved=  11.
 NSaved=11 IEnMin=11 EnMin= -2962.88004230744     IErMin=11 ErrMin= 3.33D-05
 ErrMax= 3.33D-05  0.00D+00 EMaxC= 1.00D-01 BMatC= 1.77D-06 BMatP= 3.50D-06
 IDIUse=1 WtCom= 1.00D+00 WtEn= 0.00D+00
 Coeff-Com: -0.106D-02 0.127D-02 0.933D-04 0.196D-02 0.855D-03-0.950D-02
 Coeff-Com: -0.536D-01-0.171D+00-0.357D-01 0.529D+00 0.738D+00
 Coeff:     -0.106D-02 0.127D-02 0.933D-04 0.196D-02 0.855D-03-0.950D-02
 Coeff:     -0.536D-01-0.171D+00-0.357D-01 0.529D+00 0.738D+00
 Gap=     0.032 Goal=   None    Shift=    0.000
 Gap=     0.100 Goal=   None    Shift=    0.000
 RMSDP=1.53D-05 MaxDP=2.87D-03 DE=-2.87D-06 OVMax= 6.13D-03

 Cycle  12  Pass 1  IDiag  1:
 RMSU=  2.17D-06    CP:  9.83D-01  2.04D+00  6.29D-01  6.92D-01  5.10D-01
                    CP:  8.99D-01  1.41D+00  2.86D+00  2.97D+00  1.59D+00
                    CP:  1.17D+00
 E= -2962.88004426268     Delta-E=       -0.000001955244 Rises=F Damp=F
 DIIS: error= 1.62D-05 at cycle  12 NSaved=  12.
 NSaved=12 IEnMin=12 EnMin= -2962.88004426268     IErMin=12 ErrMin= 1.62D-05
 ErrMax= 1.62D-05  0.00D+00 EMaxC= 1.00D-01 BMatC= 5.11D-07 BMatP= 1.77D-06
 IDIUse=1 WtCom= 1.00D+00 WtEn= 0.00D+00
 Coeff-Com: -0.691D-03 0.770D-03-0.211D-03 0.123D-02 0.634D-02 0.146D-01
 Coeff-Com:  0.116D-01-0.951D-01-0.260D+00 0.257D+00 0.494D+00 0.570D+00
 Coeff:     -0.691D-03 0.770D-03-0.211D-03 0.123D-02 0.634D-02 0.146D-01
 Coeff:      0.116D-01-0.951D-01-0.260D+00 0.257D+00 0.494D+00 0.570D+00
 Gap=     0.032 Goal=   None    Shift=    0.000
 Gap=     0.100 Goal=   None    Shift=    0.000
 RMSDP=7.25D-06 MaxDP=1.34D-03 DE=-1.96D-06 OVMax= 2.84D-03

 Cycle  13  Pass 1  IDiag  1:
 RMSU=  2.71D-06    CP:  9.83D-01  2.04D+00  6.30D-01  6.92D-01  5.10D-01
                    CP:  9.10D-01  1.45D+00  3.00D+00  3.00D+00  1.83D+00
                    CP:  1.42D+00  1.09D+00
 E= -2962.88004478559     Delta-E=       -0.000000522910 Rises=F Damp=F
 DIIS: error= 1.05D-05 at cycle  13 NSaved=  13.
 NSaved=13 IEnMin=13 EnMin= -2962.88004478559     IErMin=13 ErrMin= 1.05D-05
 ErrMax= 1.05D-05  0.00D+00 EMaxC= 1.00D-01 BMatC= 1.68D-07 BMatP= 5.11D-07
 IDIUse=1 WtCom= 1.00D+00 WtEn= 0.00D+00
 Coeff-Com: -0.422D-03 0.513D-03-0.824D-03-0.504D-03 0.633D-02 0.239D-01
 Coeff-Com:  0.487D-01 0.304D-01-0.187D+00-0.131D+00-0.122D+00 0.318D+00
 Coeff-Com:  0.101D+01
 Coeff:     -0.422D-03 0.513D-03-0.824D-03-0.504D-03 0.633D-02 0.239D-01
 Coeff:      0.487D-01 0.304D-01-0.187D+00-0.131D+00-0.122D+00 0.318D+00
 Coeff:      0.101D+01
 Gap=     0.032 Goal=   None    Shift=    0.000
 Gap=     0.100 Goal=   None    Shift=    0.000
 RMSDP=7.76D-06 MaxDP=1.42D-03 DE=-5.23D-07 OVMax= 3.10D-03

 Cycle  14  Pass 1  IDiag  1:
 RMSU=  3.34D-06    CP:  9.83D-01  2.04D+00  6.31D-01  6.91D-01  5.09D-01
                    CP:  9.21D-01  1.50D+00  3.00D+00  3.00D+00  2.13D+00
                    CP:  1.70D+00  1.48D+00  2.61D+00
 E= -2962.88004507088     Delta-E=       -0.000000285287 Rises=F Damp=F
 DIIS: error= 4.09D-06 at cycle  14 NSaved=  14.
 NSaved=14 IEnMin=14 EnMin= -2962.88004507088     IErMin=14 ErrMin= 4.09D-06
 ErrMax= 4.09D-06  0.00D+00 EMaxC= 1.00D-01 BMatC= 3.17D-08 BMatP= 1.68D-07
 IDIUse=1 WtCom= 1.00D+00 WtEn= 0.00D+00
 Coeff-Com: -0.323D-03 0.439D-03-0.574D-03-0.604D-03 0.206D-02 0.923D-02
 Coeff-Com:  0.192D-01 0.300D-01-0.122D-01-0.104D+00-0.173D+00-0.258D-01
 Coeff-Com:  0.581D+00 0.674D+00
 Coeff:     -0.323D-03 0.439D-03-0.574D-03-0.604D-03 0.206D-02 0.923D-02
 Coeff:      0.192D-01 0.300D-01-0.122D-01-0.104D+00-0.173D+00-0.258D-01
 Coeff:      0.581D+00 0.674D+00
 Gap=     0.032 Goal=   None    Shift=    0.000
 Gap=     0.100 Goal=   None    Shift=    0.000
 RMSDP=1.44D-06 MaxDP=2.41D-04 DE=-2.85D-07 OVMax= 5.84D-04

 Cycle  15  Pass 1  IDiag  1:
 RMSU=  5.08D-07    CP:  9.83D-01  2.04D+00  6.31D-01  6.91D-01  5.09D-01
                    CP:  9.22D-01  1.51D+00  3.00D+00  3.00D+00  2.19D+00
                    CP:  1.79D+00  1.61D+00  2.87D+00  1.13D+00
 E= -2962.88004509616     Delta-E=       -0.000000025284 Rises=F Damp=F
 DIIS: error= 2.85D-06 at cycle  15 NSaved=  15.
 NSaved=15 IEnMin=15 EnMin= -2962.88004509616     IErMin=15 ErrMin= 2.85D-06
 ErrMax= 2.85D-06  0.00D+00 EMaxC= 1.00D-01 BMatC= 1.77D-08 BMatP= 3.17D-08
 IDIUse=1 WtCom= 1.00D+00 WtEn= 0.00D+00
 Coeff-Com: -0.839D-04 0.125D-03-0.212D-03-0.337D-03-0.396D-03-0.361D-03
 Coeff-Com: -0.520D-03 0.115D-01 0.467D-01-0.417D-01-0.105D+00-0.137D+00
 Coeff-Com:  0.139D+00 0.543D+00 0.545D+00
 Coeff:     -0.839D-04 0.125D-03-0.212D-03-0.337D-03-0.396D-03-0.361D-03
 Coeff:     -0.520D-03 0.115D-01 0.467D-01-0.417D-01-0.105D+00-0.137D+00
 Coeff:      0.139D+00 0.543D+00 0.545D+00
 Gap=     0.032 Goal=   None    Shift=    0.000
 Gap=     0.100 Goal=   None    Shift=    0.000
 RMSDP=1.46D-06 MaxDP=2.52D-04 DE=-2.53D-08 OVMax= 5.81D-04

 Cycle  16  Pass 1  IDiag  1:
 RMSU=  5.47D-07    CP:  9.83D-01  2.03D+00  6.31D-01  6.91D-01  5.09D-01
                    CP:  9.24D-01  1.51D+00  3.00D+00  3.00D+00  2.23D+00
                    CP:  1.84D+00  1.72D+00  3.00D+00  1.31D+00  1.04D+00
 E= -2962.88004511078     Delta-E=       -0.000000014616 Rises=F Damp=F
 DIIS: error= 1.54D-06 at cycle  16 NSaved=  16.
 NSaved=16 IEnMin=16 EnMin= -2962.88004511078     IErMin=16 ErrMin= 1.54D-06
 ErrMax= 1.54D-06  0.00D+00 EMaxC= 1.00D-01 BMatC= 1.78D-09 BMatP= 1.77D-08
 IDIUse=1 WtCom= 1.00D+00 WtEn= 0.00D+00
 Coeff-Com:  0.758D-04-0.100D-03 0.208D-04-0.609D-04-0.822D-03-0.258D-02
 Coeff-Com: -0.505D-02-0.102D-02 0.292D-01-0.223D-02-0.254D-01-0.777D-01
 Coeff-Com: -0.713D-01 0.157D+00 0.301D+00 0.699D+00
 Coeff:      0.758D-04-0.100D-03 0.208D-04-0.609D-04-0.822D-03-0.258D-02
 Coeff:     -0.505D-02-0.102D-02 0.292D-01-0.223D-02-0.254D-01-0.777D-01
 Coeff:     -0.713D-01 0.157D+00 0.301D+00 0.699D+00
 Gap=     0.032 Goal=   None    Shift=    0.000
 Gap=     0.100 Goal=   None    Shift=    0.000
 RMSDP=1.02D-06 MaxDP=1.74D-04 DE=-1.46D-08 OVMax= 4.04D-04

 Cycle  17  Pass 1  IDiag  1:
 RMSU=  2.87D-07    CP:  9.83D-01  2.03D+00  6.31D-01  6.91D-01  5.09D-01
                    CP:  9.26D-01  1.52D+00  3.00D+00  3.00D+00  2.27D+00
                    CP:  1.87D+00  1.77D+00  3.00D+00  1.44D+00  1.24D+00
                    CP:  2.06D+00
 E= -2962.88004511287     Delta-E=       -0.000000002088 Rises=F Damp=F
 DIIS: error= 7.46D-07 at cycle  17 NSaved=  17.
 NSaved=17 IEnMin=17 EnMin= -2962.88004511287     IErMin=17 ErrMin= 7.46D-07
 ErrMax= 7.46D-07  0.00D+00 EMaxC= 1.00D-01 BMatC= 7.18D-10 BMatP= 1.78D-09
 IDIUse=1 WtCom= 1.00D+00 WtEn= 0.00D+00
 Coeff-Com:  0.414D-04-0.557D-04 0.439D-04 0.235D-04-0.396D-03-0.136D-02
 Coeff-Com: -0.290D-02-0.282D-02 0.106D-01 0.714D-02 0.440D-02-0.156D-01
 Coeff-Com: -0.655D-01-0.140D-02 0.891D-01 0.466D+00 0.513D+00
 Coeff:      0.414D-04-0.557D-04 0.439D-04 0.235D-04-0.396D-03-0.136D-02
 Coeff:     -0.290D-02-0.282D-02 0.106D-01 0.714D-02 0.440D-02-0.156D-01
 Coeff:     -0.655D-01-0.140D-02 0.891D-01 0.466D+00 0.513D+00
 Gap=     0.032 Goal=   None    Shift=    0.000
 Gap=     0.100 Goal=   None    Shift=    0.000
 RMSDP=1.94D-07 MaxDP=3.30D-05 DE=-2.09D-09 OVMax= 7.30D-05

 Cycle  18  Pass 1  IDiag  1:
 RMSU=  1.13D-07    CP:  9.83D-01  2.03D+00  6.31D-01  6.91D-01  5.09D-01
                    CP:  9.26D-01  1.52D+00  3.00D+00  3.00D+00  2.26D+00
                    CP:  1.86D+00  1.77D+00  3.00D+00  1.42D+00  1.30D+00
                    CP:  1.95D+00  8.10D-01
 E= -2962.88004511353     Delta-E=       -0.000000000668 Rises=F Damp=F
 DIIS: error= 8.31D-07 at cycle  18 NSaved=  18.
 NSaved=18 IEnMin=18 EnMin= -2962.88004511353     IErMin=17 ErrMin= 7.46D-07
 ErrMax= 8.31D-07  0.00D+00 EMaxC= 1.00D-01 BMatC= 1.28D-10 BMatP= 7.18D-10
 IDIUse=1 WtCom= 1.00D+00 WtEn= 0.00D+00
 Coeff-Com:  0.723D-05-0.939D-05 0.196D-04 0.177D-04-0.686D-04-0.248D-03
 Coeff-Com: -0.602D-03-0.113D-02 0.120D-02 0.345D-02 0.556D-02 0.763D-02
 Coeff-Com: -0.234D-01-0.250D-01 0.362D-02 0.157D+00 0.150D+00 0.722D+00
 Coeff:      0.723D-05-0.939D-05 0.196D-04 0.177D-04-0.686D-04-0.248D-03
 Coeff:     -0.602D-03-0.113D-02 0.120D-02 0.345D-02 0.556D-02 0.763D-02
 Coeff:     -0.234D-01-0.250D-01 0.362D-02 0.157D+00 0.150D+00 0.722D+00
 Gap=     0.032 Goal=   None    Shift=    0.000
 Gap=     0.100 Goal=   None    Shift=    0.000
 RMSDP=1.60D-07 MaxDP=2.60D-05 DE=-6.68D-10 OVMax= 6.39D-05

 Cycle  19  Pass 1  IDiag  1:
 RMSU=  4.72D-08    CP:  9.83D-01  2.03D+00  6.31D-01  6.91D-01  5.09D-01
                    CP:  9.26D-01  1.52D+00  3.00D+00  3.00D+00  2.26D+00
                    CP:  1.86D+00  1.76D+00  3.00D+00  1.40D+00  1.36D+00
                    CP:  1.87D+00  6.95D-01  1.86D+00
 E= -2962.88004511316     Delta-E=        0.000000000369 Rises=F Damp=F
 DIIS: error= 6.12D-07 at cycle  19 NSaved=  19.
 NSaved=19 IEnMin=18 EnMin= -2962.88004511353     IErMin=19 ErrMin= 6.12D-07
 ErrMax= 6.12D-07  0.00D+00 EMaxC= 1.00D-01 BMatC= 9.74D-11 BMatP= 1.28D-10
 IDIUse=1 WtCom= 1.00D+00 WtEn= 0.00D+00
 Coeff-Com: -0.486D-05 0.704D-05 0.143D-06 0.819D-06 0.136D-03 0.491D-03
 Coeff-Com:  0.112D-02 0.691D-03-0.531D-02-0.206D-02 0.139D-02 0.171D-01
 Coeff-Com:  0.108D-01-0.250D-01-0.448D-01-0.980D-01-0.255D+00 0.773D+00
 Coeff-Com:  0.625D+00
 Coeff:     -0.486D-05 0.704D-05 0.143D-06 0.819D-06 0.136D-03 0.491D-03
 Coeff:      0.112D-02 0.691D-03-0.531D-02-0.206D-02 0.139D-02 0.171D-01
 Coeff:      0.108D-01-0.250D-01-0.448D-01-0.980D-01-0.255D+00 0.773D+00
 Coeff:      0.625D+00
 Gap=     0.032 Goal=   None    Shift=    0.000
 Gap=     0.100 Goal=   None    Shift=    0.000
 RMSDP=1.29D-07 MaxDP=3.30D-06 DE= 3.69D-10 OVMax= 6.08D-05

 Cycle  20  Pass 1  IDiag  1:
 RMSU=  2.67D-08    CP:  9.83D-01  2.03D+00  6.31D-01  6.91D-01  5.09D-01
                    CP:  9.26D-01  1.52D+00  3.00D+00  3.00D+00  2.26D+00
                    CP:  1.87D+00  1.77D+00  3.00D+00  1.41D+00  1.45D+00
                    CP:  1.97D+00  6.94D-01  2.75D+00  1.44D+00
 E= -2962.88004511361     Delta-E=       -0.000000000449 Rises=F Damp=F
 DIIS: error= 5.13D-07 at cycle  20 NSaved=  20.
 NSaved=20 IEnMin=20 EnMin= -2962.88004511361     IErMin=20 ErrMin= 5.13D-07
 ErrMax= 5.13D-07  0.00D+00 EMaxC= 1.00D-01 BMatC= 2.70D-11 BMatP= 9.74D-11
 IDIUse=1 WtCom= 1.00D+00 WtEn= 0.00D+00
 Coeff-Com:  0.355D-05-0.486D-05-0.396D-05-0.720D-05 0.930D-04 0.372D-03
 Coeff-Com:  0.934D-03 0.962D-03-0.387D-02-0.347D-02-0.218D-02 0.875D-02
 Coeff-Com:  0.127D-01-0.693D-02-0.267D-01-0.107D+00-0.313D+00 0.326D+00
 Coeff-Com:  0.332D+00 0.781D+00
 Coeff:      0.355D-05-0.486D-05-0.396D-05-0.720D-05 0.930D-04 0.372D-03
 Coeff:      0.934D-03 0.962D-03-0.387D-02-0.347D-02-0.218D-02 0.875D-02
 Coeff:      0.127D-01-0.693D-02-0.267D-01-0.107D+00-0.313D+00 0.326D+00
 Coeff:      0.332D+00 0.781D+00
 Gap=     0.032 Goal=   None    Shift=    0.000
 Gap=     0.100 Goal=   None    Shift=    0.000
 RMSDP=1.31D-07 MaxDP=7.33D-06 DE=-4.49D-10 OVMax= 6.15D-05

 Cycle  21  Pass 1  IDiag  1:
 Restarting incremental Fock formation.
 E= -2962.88004511382     Delta-E=       -0.000000000209 Rises=F Damp=F
 DIIS: error= 3.11D-07 at cycle  21 NSaved=  20.
 NSaved=20 IEnMin=20 EnMin= -2962.88004511382     IErMin=20 ErrMin= 3.11D-07
 ErrMax= 3.11D-07  0.00D+00 EMaxC= 1.00D-01 BMatC= 2.73D-11 BMatP= 2.70D-11
 IDIUse=1 WtCom= 1.00D+00 WtEn= 0.00D+00
 Coeff-Com:  0.727D-06-0.243D-05-0.457D-05-0.612D-04-0.156D-03-0.358D-03
 Coeff-Com:  0.554D-04 0.265D-02-0.474D-03-0.250D-02-0.644D-02-0.265D-02
 Coeff-Com:  0.163D-01 0.266D-01 0.481D-01-0.391D-01-0.343D+00-0.529D+00
 Coeff-Com:  0.606D+00 0.122D+01
 Coeff:      0.727D-06-0.243D-05-0.457D-05-0.612D-04-0.156D-03-0.358D-03
 Coeff:      0.554D-04 0.265D-02-0.474D-03-0.250D-02-0.644D-02-0.265D-02
 Coeff:      0.163D-01 0.266D-01 0.481D-01-0.391D-01-0.343D+00-0.529D+00
 Coeff:      0.606D+00 0.122D+01
 Gap=     0.032 Goal=   None    Shift=    0.000
 Gap=     0.100 Goal=   None    Shift=    0.000
 RMSDP=1.69D-07 MaxDP=1.45D-05 DE=-2.09D-10 OVMax= 7.77D-05

 Cycle  22  Pass 1  IDiag  1:
 RMSU=  1.68D-07    CP:  1.00D+00
 E= -2962.88004511395     Delta-E=       -0.000000000122 Rises=F Damp=F
 DIIS: error= 1.29D-07 at cycle  22 NSaved=  20.
 NSaved=20 IEnMin=20 EnMin= -2962.88004511395     IErMin=20 ErrMin= 1.29D-07
 ErrMax= 1.29D-07  0.00D+00 EMaxC= 1.00D-01 BMatC= 4.25D-12 BMatP= 2.70D-11
 IDIUse=1 WtCom= 1.00D+00 WtEn= 0.00D+00
 Coeff-Com: -0.621D-06-0.512D-06-0.567D-04-0.173D-03-0.432D-03-0.219D-03
 Coeff-Com:  0.255D-02 0.544D-03-0.100D-02-0.537D-02-0.516D-02 0.112D-01
 Coeff-Com:  0.226D-01 0.594D-01 0.436D-01-0.260D+00-0.450D+00 0.217D+00
 Coeff-Com:  0.737D+00 0.629D+00
 Coeff:     -0.621D-06-0.512D-06-0.567D-04-0.173D-03-0.432D-03-0.219D-03
 Coeff:      0.255D-02 0.544D-03-0.100D-02-0.537D-02-0.516D-02 0.112D-01
 Coeff:      0.226D-01 0.594D-01 0.436D-01-0.260D+00-0.450D+00 0.217D+00
 Coeff:      0.737D+00 0.629D+00
 Gap=     0.032 Goal=   None    Shift=    0.000
 Gap=     0.100 Goal=   None    Shift=    0.000
 RMSDP=5.38D-08 MaxDP=5.03D-06 DE=-1.22D-10 OVMax= 2.46D-05

 Cycle  23  Pass 1  IDiag  1:
 RMSU=  6.85D-09    CP:  1.00D+00  1.32D+00
 E= -2962.88004511397     Delta-E=       -0.000000000022 Rises=F Damp=F
 DIIS: error= 6.89D-08 at cycle  23 NSaved=  20.
 NSaved=20 IEnMin=20 EnMin= -2962.88004511397     IErMin=20 ErrMin= 6.89D-08
 ErrMax= 6.89D-08  0.00D+00 EMaxC= 1.00D-01 BMatC= 2.58D-12 BMatP= 4.25D-12
 IDIUse=1 WtCom= 1.00D+00 WtEn= 0.00D+00
 Coeff-Com: -0.148D-05-0.242D-04-0.772D-04-0.190D-03-0.167D-03 0.985D-03
 Coeff-Com:  0.426D-03-0.122D-03-0.169D-02-0.328D-02 0.268D-02 0.729D-02
 Coeff-Com:  0.286D-01 0.472D-01-0.382D-01-0.156D+00-0.662D-01 0.558D-01
 Coeff-Com:  0.524D+00 0.599D+00
 Coeff:     -0.148D-05-0.242D-04-0.772D-04-0.190D-03-0.167D-03 0.985D-03
 Coeff:      0.426D-03-0.122D-03-0.169D-02-0.328D-02 0.268D-02 0.729D-02
 Coeff:      0.286D-01 0.472D-01-0.382D-01-0.156D+00-0.662D-01 0.558D-01
 Coeff:      0.524D+00 0.599D+00
 Gap=     0.032 Goal=   None    Shift=    0.000
 Gap=     0.100 Goal=   None    Shift=    0.000
 RMSDP=2.55D-08 MaxDP=9.87D-07 DE=-2.18D-11 OVMax= 1.20D-05

 Cycle  24  Pass 1  IDiag  1:
 RMSU=  1.48D-08    CP:  1.00D+00  1.43D+00 -8.95D-02
 E= -2962.88004511406     Delta-E=       -0.000000000089 Rises=F Damp=F
 DIIS: error= 4.71D-08 at cycle  24 NSaved=  20.
 NSaved=20 IEnMin=20 EnMin= -2962.88004511406     IErMin=20 ErrMin= 4.71D-08
 ErrMax= 4.71D-08  0.00D+00 EMaxC= 1.00D-01 BMatC= 1.41D-12 BMatP= 2.58D-12
 IDIUse=1 WtCom= 1.00D+00 WtEn= 0.00D+00
 Coeff-Com:  0.104D-04 0.284D-04 0.582D-04-0.219D-04-0.320D-03-0.211D-04
 Coeff-Com:  0.108D-03 0.945D-03 0.105D-03-0.181D-02-0.347D-02-0.261D-02
 Coeff-Com:  0.181D-01 0.741D-01 0.228D-01-0.128D+00-0.225D+00 0.221D+00
 Coeff-Com:  0.538D+00 0.486D+00
 Coeff:      0.104D-04 0.284D-04 0.582D-04-0.219D-04-0.320D-03-0.211D-04
 Coeff:      0.108D-03 0.945D-03 0.105D-03-0.181D-02-0.347D-02-0.261D-02
 Coeff:      0.181D-01 0.741D-01 0.228D-01-0.128D+00-0.225D+00 0.221D+00
 Coeff:      0.538D+00 0.486D+00
 Gap=     0.032 Goal=   None    Shift=    0.000
 Gap=     0.100 Goal=   None    Shift=    0.000
 RMSDP=1.54D-08 MaxDP=8.14D-07 DE=-8.91D-11 OVMax= 7.16D-06

 Cycle  25  Pass 1  IDiag  1:
 RMSU=  4.10D-09    CP:  1.00D+00  1.50D+00 -3.28D-01  1.66D+00
 E= -2962.88004511404     Delta-E=        0.000000000018 Rises=F Damp=F
 DIIS: error= 1.79D-08 at cycle  25 NSaved=  20.
 NSaved=20 IEnMin=19 EnMin= -2962.88004511406     IErMin=20 ErrMin= 1.79D-08
 ErrMax= 1.79D-08  0.00D+00 EMaxC= 1.00D-01 BMatC= 1.98D-13 BMatP= 1.41D-12
 IDIUse=1 WtCom= 1.00D+00 WtEn= 0.00D+00
 Coeff-Com: -0.181D-05-0.401D-05-0.320D-04-0.410D-04 0.721D-04 0.134D-03
 Coeff-Com:  0.324D-03-0.301D-03-0.102D-02-0.154D-02-0.116D-02 0.785D-02
 Coeff-Com:  0.411D-01 0.285D-01-0.511D-01-0.109D+00-0.374D-01 0.541D-01
 Coeff-Com:  0.195D+00 0.875D+00
 Coeff:     -0.181D-05-0.401D-05-0.320D-04-0.410D-04 0.721D-04 0.134D-03
 Coeff:      0.324D-03-0.301D-03-0.102D-02-0.154D-02-0.116D-02 0.785D-02
 Coeff:      0.411D-01 0.285D-01-0.511D-01-0.109D+00-0.374D-01 0.541D-01
 Coeff:      0.195D+00 0.875D+00
 Gap=     0.032 Goal=   None    Shift=    0.000
 Gap=     0.100 Goal=   None    Shift=    0.000
 RMSDP=6.99D-09 MaxDP=2.19D-07 DE= 1.82D-11 OVMax= 3.25D-06

 SCF Done:  E(UB3LYP) =  -2962.88004511     A.U. after   25 cycles
            NFock= 25  Conv=0.70D-08     -V/T= 2.0043
 <Sx>= 0.0000 <Sy>= 0.0000 <Sz>= 0.5000 <S**2>= 0.7536 S= 0.5018
 <L.S>=  0.00000000000    
 KE= 2.950142786289D+03 PE=-2.554336799784D+04 EE= 1.028180140497D+04
 Annihilation of the first spin contaminant:
 S**2 before annihilation     0.7536,   after     0.7500
 Leave Link  502 at Thu Oct 17 13:58:50 2024, MaxMem=   104857600 cpu:           20064.8 elap:            2564.9
 (Enter /gpfs/softs/softwares/Gaussian/g16/l601.exe)
 Copying SCF densities to generalized density rwf, IOpCl= 1 IROHF=0.

 **********************************************************************

            Population analysis using the SCF Density.

 **********************************************************************

 Orbital symmetries:
 Alpha Orbitals:
       Occupied  (A) (A) (A) (A) (A) (A) (A) (A) (A) (A) (A) (A)
                 (A) (A) (A) (A) (A) (A) (A) (A) (A) (A) (A) (A)
                 (A) (A) (A) (A) (A) (A) (A) (A) (A) (A) (A) (A)
                 (A) (A) (A) (A) (A) (A) (A) (A) (A) (A) (A) (A)
                 (A) (A) (A) (A) (A) (A) (A) (A) (A) (A) (A) (A)
                 (A) (A) (A) (A) (A) (A) (A) (A) (A) (A) (A) (A)
                 (A) (A) (A) (A) (A) (A) (A) (A) (A) (A) (A) (A)
                 (A) (A) (A) (A) (A) (A) (A) (A) (A) (A) (A) (A)
                 (A) (A) (A) (A) (A) (A) (A) (A) (A) (A) (A) (A)
                 (A) (A) (A) (A) (A) (A) (A) (A) (A) (A) (A) (A)
                 (A) (A) (A) (A) (A) (A) (A) (A) (A) (A) (A) (A)
                 (A) (A) (A) (A) (A) (A) (A) (A) (A) (A) (A) (A)
                 (A) (A) (A) (A) (A) (A) (A) (A) (A) (A) (A) (A)
                 (A) (A) (A) (A) (A) (A) (A) (A) (A) (A) (A) (A)
                 (A) (A) (A) (A) (A) (A) (A) (A) (A) (A) (A) (A)
                 (A) (A) (A) (A) (A) (A) (A) (A) (A) (A)
       Virtual   (A) (A) (A) (A) (A) (A) (A) (A) (A) (A) (A) (A)
                 (A) (A) (A) (A) (A) (A) (A) (A) (A) (A) (A) (A)
                 (A) (A) (A) (A) (A) (A) (A) (A) (A) (A) (A) (A)
                 (A) (A) (A) (A) (A) (A) (A) (A) (A) (A) (A) (A)
                 (A) (A) (A) (A) (A) (A) (A) (A) (A) (A) (A) (A)
                 (A) (A) (A) (A) (A) (A) (A) (A) (A) (A) (A) (A)
                 (A) (A) (A) (A) (A) (A) (A) (A) (A) (A) (A) (A)
                 (A) (A) (A) (A) (A) (A) (A) (A) (A) (A) (A) (A)
                 (A) (A) (A) (A) (A) (A) (A) (A) (A) (A) (A) (A)
                 (A) (A) (A) (A) (A) (A) (A) (A) (A) (A) (A) (A)
                 (A) (A) (A) (A) (A) (A) (A) (A) (A) (A) (A) (A)
                 (A) (A) (A) (A) (A) (A) (A) (A) (A) (A) (A) (A)
                 (A) (A) (A) (A) (A) (A) (A) (A) (A) (A) (A) (A)
                 (A) (A) (A) (A) (A) (A) (A) (A) (A) (A) (A) (A)
                 (A) (A) (A) (A) (A) (A) (A) (A) (A) (A) (A) (A)
                 (A) (A) (A) (A) (A) (A) (A) (A) (A) (A) (A) (A)
                 (A) (A) (A) (A) (A) (A) (A) (A) (A) (A) (A) (A)
                 (A) (A) (A) (A) (A) (A) (A) (A) (A) (A) (A) (A)
                 (A) (A) (A) (A) (A) (A) (A) (A) (A) (A) (A) (A)
                 (A) (A) (A) (A) (A) (A) (A) (A) (A) (A) (A) (A)
                 (A) (A) (A) (A) (A) (A) (A) (A) (A) (A) (A) (A)
                 (A) (A) (A) (A) (A) (A) (A) (A) (A) (A) (A) (A)
                 (A) (A) (A) (A) (A) (A) (A) (A) (A) (A) (A) (A)
                 (A) (A) (A) (A) (A) (A) (A) (A) (A) (A) (A) (A)
                 (A) (A) (A) (A) (A) (A) (A) (A) (A) (A) (A) (A)
                 (A) (A) (A) (A) (A) (A) (A) (A) (A) (A) (A) (A)
                 (A) (A) (A) (A) (A) (A) (A) (A) (A) (A) (A) (A)
                 (A) (A) (A) (A) (A) (A) (A) (A) (A) (A) (A) (A)
                 (A) (A) (A) (A) (A) (A) (A) (A) (A) (A) (A) (A)
                 (A) (A) (A) (A) (A) (A) (A) (A) (A) (A) (A) (A)
                 (A) (A) (A) (A) (A) (A) (A)
 Beta  Orbitals:
       Occupied  (A) (A) (A) (A) (A) (A) (A) (A) (A) (A) (A) (A)
                 (A) (A) (A) (A) (A) (A) (A) (A) (A) (A) (A) (A)
                 (A) (A) (A) (A) (A) (A) (A) (A) (A) (A) (A) (A)
                 (A) (A) (A) (A) (A) (A) (A) (A) (A) (A) (A) (A)
                 (A) (A) (A) (A) (A) (A) (A) (A) (A) (A) (A) (A)
                 (A) (A) (A) (A) (A) (A) (A) (A) (A) (A) (A) (A)
                 (A) (A) (A) (A) (A) (A) (A) (A) (A) (A) (A) (A)
                 (A) (A) (A) (A) (A) (A) (A) (A) (A) (A) (A) (A)
                 (A) (A) (A) (A) (A) (A) (A) (A) (A) (A) (A) (A)
                 (A) (A) (A) (A) (A) (A) (A) (A) (A) (A) (A) (A)
                 (A) (A) (A) (A) (A) (A) (A) (A) (A) (A) (A) (A)
                 (A) (A) (A) (A) (A) (A) (A) (A) (A) (A) (A) (A)
                 (A) (A) (A) (A) (A) (A) (A) (A) (A) (A) (A) (A)
                 (A) (A) (A) (A) (A) (A) (A) (A) (A) (A) (A) (A)
                 (A) (A) (A) (A) (A) (A) (A) (A) (A) (A) (A) (A)
                 (A) (A) (A) (A) (A) (A) (A) (A) (A)
       Virtual   (A) (A) (A) (A) (A) (A) (A) (A) (A) (A) (A) (A)
                 (A) (A) (A) (A) (A) (A) (A) (A) (A) (A) (A) (A)
                 (A) (A) (A) (A) (A) (A) (A) (A) (A) (A) (A) (A)
                 (A) (A) (A) (A) (A) (A) (A) (A) (A) (A) (A) (A)
                 (A) (A) (A) (A) (A) (A) (A) (A) (A) (A) (A) (A)
                 (A) (A) (A) (A) (A) (A) (A) (A) (A) (A) (A) (A)
                 (A) (A) (A) (A) (A) (A) (A) (A) (A) (A) (A) (A)
                 (A) (A) (A) (A) (A) (A) (A) (A) (A) (A) (A) (A)
                 (A) (A) (A) (A) (A) (A) (A) (A) (A) (A) (A) (A)
                 (A) (A) (A) (A) (A) (A) (A) (A) (A) (A) (A) (A)
                 (A) (A) (A) (A) (A) (A) (A) (A) (A) (A) (A) (A)
                 (A) (A) (A) (A) (A) (A) (A) (A) (A) (A) (A) (A)
                 (A) (A) (A) (A) (A) (A) (A) (A) (A) (A) (A) (A)
                 (A) (A) (A) (A) (A) (A) (A) (A) (A) (A) (A) (A)
                 (A) (A) (A) (A) (A) (A) (A) (A) (A) (A) (A) (A)
                 (A) (A) (A) (A) (A) (A) (A) (A) (A) (A) (A) (A)
                 (A) (A) (A) (A) (A) (A) (A) (A) (A) (A) (A) (A)
                 (A) (A) (A) (A) (A) (A) (A) (A) (A) (A) (A) (A)
                 (A) (A) (A) (A) (A) (A) (A) (A) (A) (A) (A) (A)
                 (A) (A) (A) (A) (A) (A) (A) (A) (A) (A) (A) (A)
                 (A) (A) (A) (A) (A) (A) (A) (A) (A) (A) (A) (A)
                 (A) (A) (A) (A) (A) (A) (A) (A) (A) (A) (A) (A)
                 (A) (A) (A) (A) (A) (A) (A) (A) (A) (A) (A) (A)
                 (A) (A) (A) (A) (A) (A) (A) (A) (A) (A) (A) (A)
                 (A) (A) (A) (A) (A) (A) (A) (A) (A) (A) (A) (A)
                 (A) (A) (A) (A) (A) (A) (A) (A) (A) (A) (A) (A)
                 (A) (A) (A) (A) (A) (A) (A) (A) (A) (A) (A) (A)
                 (A) (A) (A) (A) (A) (A) (A) (A) (A) (A) (A) (A)
                 (A) (A) (A) (A) (A) (A) (A) (A) (A) (A) (A) (A)
                 (A) (A) (A) (A) (A) (A) (A) (A) (A) (A) (A) (A)
                 (A) (A) (A) (A) (A) (A) (A) (A)
 The electronic state is 2-A.
 Alpha  occ. eigenvalues -- -145.66030 -15.72706 -12.85916 -12.85913 -12.85905
 Alpha  occ. eigenvalues --  -10.37694 -10.37693 -10.37690 -10.37688 -10.37606
 Alpha  occ. eigenvalues --  -10.37604 -10.37488 -10.37463 -10.37459 -10.37438
 Alpha  occ. eigenvalues --  -10.37438 -10.37378 -10.37378 -10.37324 -10.37324
 Alpha  occ. eigenvalues --  -10.37318 -10.37223 -10.37198 -10.37067 -10.37024
 Alpha  occ. eigenvalues --  -10.36955 -10.36911 -10.36892 -10.36892 -10.36839
 Alpha  occ. eigenvalues --  -10.36839 -10.36788 -10.36787 -10.36776 -10.36776
 Alpha  occ. eigenvalues --  -10.36701 -10.36701 -10.36616 -10.36615 -10.36572
 Alpha  occ. eigenvalues --  -10.36571 -10.36541 -10.36540 -10.36484 -10.36470
 Alpha  occ. eigenvalues --  -10.36470 -10.36461 -10.36438 -10.36415 -10.36404
 Alpha  occ. eigenvalues --  -10.36404 -10.36318 -10.36318 -10.36169 -10.36167
 Alpha  occ. eigenvalues --  -10.36160 -10.36159 -10.36150 -10.36149 -10.36098
 Alpha  occ. eigenvalues --  -10.36096 -10.36052 -10.36051 -10.35853 -10.35720
 Alpha  occ. eigenvalues --   -2.09292  -1.36536  -1.36496  -1.36476  -1.11781
 Alpha  occ. eigenvalues --   -1.09627  -1.09456  -1.09426  -1.05765  -1.05685
 Alpha  occ. eigenvalues --   -1.05612  -1.05581  -1.05562  -1.01581  -1.01539
 Alpha  occ. eigenvalues --   -1.01455  -0.98454  -0.98381  -0.98332  -0.98295
 Alpha  occ. eigenvalues --   -0.93246  -0.93225  -0.93219  -0.93161  -0.93131
 Alpha  occ. eigenvalues --   -0.91607  -0.91518  -0.91477  -0.91447  -0.86031
 Alpha  occ. eigenvalues --   -0.85947  -0.85801  -0.85712  -0.85657  -0.84527
 Alpha  occ. eigenvalues --   -0.84260  -0.84248  -0.80027  -0.80012  -0.79925
 Alpha  occ. eigenvalues --   -0.76486  -0.76382  -0.76354  -0.76298  -0.76244
 Alpha  occ. eigenvalues --   -0.76243  -0.76201  -0.75907  -0.73285  -0.69402
 Alpha  occ. eigenvalues --   -0.69281  -0.69242  -0.69233  -0.67157  -0.67102
 Alpha  occ. eigenvalues --   -0.66926  -0.66847  -0.66824  -0.65487  -0.65251
 Alpha  occ. eigenvalues --   -0.65219  -0.62809  -0.62738  -0.62706  -0.62601
 Alpha  occ. eigenvalues --   -0.60243  -0.60234  -0.60229  -0.60214  -0.59965
 Alpha  occ. eigenvalues --   -0.59839  -0.59738  -0.58522  -0.58481  -0.58380
 Alpha  occ. eigenvalues --   -0.58337  -0.58265  -0.57136  -0.57001  -0.56950
 Alpha  occ. eigenvalues --   -0.56910  -0.55935  -0.55859  -0.55785  -0.55324
 Alpha  occ. eigenvalues --   -0.55256  -0.55176  -0.55156  -0.55153  -0.54123
 Alpha  occ. eigenvalues --   -0.54104  -0.54043  -0.53849  -0.50073  -0.49869
 Alpha  occ. eigenvalues --   -0.49792  -0.49786  -0.49729  -0.49660  -0.49657
 Alpha  occ. eigenvalues --   -0.49637  -0.48622  -0.48561  -0.48550  -0.48400
 Alpha  occ. eigenvalues --   -0.48288  -0.47970  -0.47841  -0.47787  -0.47699
 Alpha  occ. eigenvalues --   -0.41306  -0.41202  -0.41192  -0.40978  -0.40951
 Alpha  occ. eigenvalues --   -0.40908  -0.40824  -0.40806  -0.40674  -0.36255
 Alpha  occ. eigenvalues --   -0.36121  -0.35903  -0.35836  -0.35758  -0.28711
 Alpha virt. eigenvalues --   -0.25489  -0.25369  -0.25216  -0.21754  -0.21753
 Alpha virt. eigenvalues --   -0.21045  -0.17072  -0.16800  -0.16686  -0.16430
 Alpha virt. eigenvalues --   -0.16296  -0.15981  -0.15819  -0.15785  -0.12068
 Alpha virt. eigenvalues --   -0.11904  -0.10885  -0.10658  -0.10469  -0.10441
 Alpha virt. eigenvalues --   -0.10382  -0.10170  -0.08405  -0.08256  -0.08234
 Alpha virt. eigenvalues --   -0.08220  -0.05869  -0.05707  -0.05685  -0.05567
 Alpha virt. eigenvalues --   -0.03849  -0.03707  -0.03700  -0.00900  -0.00535
 Alpha virt. eigenvalues --   -0.00247   0.00960   0.02512   0.02686   0.02714
 Alpha virt. eigenvalues --    0.02829   0.03087   0.03538   0.03664   0.05157
 Alpha virt. eigenvalues --    0.05220   0.05734   0.05804   0.06066   0.06071
 Alpha virt. eigenvalues --    0.06915   0.06988   0.07023   0.07185   0.07625
 Alpha virt. eigenvalues --    0.10347   0.10435   0.10474   0.10662   0.10684
 Alpha virt. eigenvalues --    0.12427   0.12562   0.12645   0.12657   0.15429
 Alpha virt. eigenvalues --    0.15617   0.15697   0.15796   0.15947   0.18378
 Alpha virt. eigenvalues --    0.18806   0.18917   0.20685   0.20731   0.20842
 Alpha virt. eigenvalues --    0.22441   0.22499   0.22520   0.23719   0.23863
 Alpha virt. eigenvalues --    0.24075   0.24204   0.24291   0.29611   0.29796
 Alpha virt. eigenvalues --    0.30022   0.31468   0.31731   0.32081   0.32212
 Alpha virt. eigenvalues --    0.32578   0.32738   0.32870   0.32967   0.33001
 Alpha virt. eigenvalues --    0.33143   0.33327   0.33333   0.33383   0.35327
 Alpha virt. eigenvalues --    0.35418   0.35467   0.37311   0.37329   0.37574
 Alpha virt. eigenvalues --    0.37590   0.37687   0.38413   0.38658   0.38708
 Alpha virt. eigenvalues --    0.38826   0.40259   0.40288   0.40305   0.40437
 Alpha virt. eigenvalues --    0.40523   0.40909   0.40978   0.41048   0.41061
 Alpha virt. eigenvalues --    0.41095   0.42037   0.42118   0.42168   0.42248
 Alpha virt. eigenvalues --    0.42432   0.42695   0.42877   0.43135   0.43138
 Alpha virt. eigenvalues --    0.43347   0.43566   0.43726   0.43760   0.43933
 Alpha virt. eigenvalues --    0.44125   0.44141   0.44503   0.44589   0.44722
 Alpha virt. eigenvalues --    0.44722   0.44927   0.44975   0.45119   0.45565
 Alpha virt. eigenvalues --    0.45597   0.45835   0.45921   0.45955   0.49570
 Alpha virt. eigenvalues --    0.49744   0.49898   0.50044   0.50240   0.50330
 Alpha virt. eigenvalues --    0.50349   0.50720   0.50741   0.50797   0.50911
 Alpha virt. eigenvalues --    0.50918   0.50957   0.51478   0.51562   0.51623
 Alpha virt. eigenvalues --    0.51645   0.51746   0.52419   0.52732   0.52872
 Alpha virt. eigenvalues --    0.52978   0.53104   0.53155   0.53209   0.53768
 Alpha virt. eigenvalues --    0.53881   0.53918   0.53961   0.54396   0.54445
 Alpha virt. eigenvalues --    0.54617   0.54648   0.54655   0.54672   0.54789
 Alpha virt. eigenvalues --    0.54809   0.54849   0.55450   0.55511   0.55545
 Alpha virt. eigenvalues --    0.55923   0.56048   0.56127   0.56171   0.56194
 Alpha virt. eigenvalues --    0.56276   0.56341   0.57174   0.57201   0.57303
 Alpha virt. eigenvalues --    0.57388   0.57468   0.57520   0.57542   0.61963
 Alpha virt. eigenvalues --    0.62606   0.62608   0.63349   0.64551   0.64655
 Alpha virt. eigenvalues --    0.64689   0.65205   0.65796   0.66057   0.66191
 Alpha virt. eigenvalues --    0.73103   0.73116   0.73539   0.73604   0.73623
 Alpha virt. eigenvalues --    0.73659   0.74707   0.74900   0.75052   0.76279
 Alpha virt. eigenvalues --    0.76549   0.76956   0.76965   0.77054   0.77079
 Alpha virt. eigenvalues --    0.77113   0.78429   0.78434   0.78562   0.78613
 Alpha virt. eigenvalues --    0.78623   0.79430   0.79537   0.79558   0.79661
 Alpha virt. eigenvalues --    0.79686   0.81458   0.81605   0.81673   0.81715
 Alpha virt. eigenvalues --    0.81874   0.81876   0.81940   0.84460   0.84553
 Alpha virt. eigenvalues --    0.84586   0.84628   0.84698   0.87567   0.90060
 Alpha virt. eigenvalues --    0.90072   0.91151   0.91251   0.91280   0.91448
 Alpha virt. eigenvalues --    0.91597   0.91708   0.91916   0.91951   0.92109
 Alpha virt. eigenvalues --    0.92260   0.94355   0.94467   0.94687   0.94695
 Alpha virt. eigenvalues --    0.94729   0.94820   0.94873   0.94921   0.95134
 Alpha virt. eigenvalues --    0.95146   0.95351   0.95633   0.95820   0.95943
 Alpha virt. eigenvalues --    0.95996   0.96144   0.97013   0.97114   0.97219
 Alpha virt. eigenvalues --    0.97264   0.97277   0.97844   0.97885   0.97906
 Alpha virt. eigenvalues --    0.98040   0.99868   1.02868   1.02904   1.02944
 Alpha virt. eigenvalues --    1.02968   1.02985   1.03089   1.03134   1.03373
 Alpha virt. eigenvalues --    1.03415   1.03433   1.03476   1.03509   1.07039
 Alpha virt. eigenvalues --    1.07045   1.07343   1.09645   1.09663   1.09763
 Alpha virt. eigenvalues --    1.09874   1.13752   1.13807   1.13967   1.14075
 Alpha virt. eigenvalues --    1.14118   1.14433   1.14560   1.14755   1.14803
 Alpha virt. eigenvalues --    1.14813   1.14835   1.14856   1.14957   1.16642
 Alpha virt. eigenvalues --    1.16675   1.16720   1.16809   1.19879   1.20930
 Alpha virt. eigenvalues --    1.21260   1.24252   1.24295   1.24396   1.25043
 Alpha virt. eigenvalues --    1.25248   1.26487   1.26545   1.26646   1.28196
 Alpha virt. eigenvalues --    1.28222   1.28271   1.41070   1.47965   1.47976
 Alpha virt. eigenvalues --    1.48456   1.48715   1.48817   1.59583   1.60259
 Alpha virt. eigenvalues --    1.60519   1.73478   1.73605   1.73730   1.73896
 Alpha virt. eigenvalues --    1.93349   1.93580   1.94097   1.94199   1.94303
 Alpha virt. eigenvalues --    2.14755   2.15247   2.15281   2.15866   2.42615
 Alpha virt. eigenvalues --    2.42961   2.43373
  Beta  occ. eigenvalues -- -145.65995 -15.72662 -12.85887 -12.85885 -12.85871
  Beta  occ. eigenvalues --  -10.37709 -10.37708 -10.37691 -10.37689 -10.37589
  Beta  occ. eigenvalues --  -10.37587 -10.37473 -10.37449 -10.37390 -10.37389
  Beta  occ. eigenvalues --  -10.37378 -10.37378 -10.37365 -10.37341 -10.37339
  Beta  occ. eigenvalues --  -10.37182 -10.37176 -10.37152 -10.37070 -10.37027
  Beta  occ. eigenvalues --  -10.36951 -10.36907 -10.36853 -10.36852 -10.36805
  Beta  occ. eigenvalues --  -10.36805 -10.36795 -10.36794 -10.36718 -10.36718
  Beta  occ. eigenvalues --  -10.36708 -10.36707 -10.36575 -10.36575 -10.36545
  Beta  occ. eigenvalues --  -10.36545 -10.36526 -10.36526 -10.36485 -10.36478
  Beta  occ. eigenvalues --  -10.36477 -10.36462 -10.36432 -10.36408 -10.36383
  Beta  occ. eigenvalues --  -10.36383 -10.36275 -10.36275 -10.36169 -10.36168
  Beta  occ. eigenvalues --  -10.36146 -10.36145 -10.36088 -10.36087 -10.36081
  Beta  occ. eigenvalues --  -10.36081 -10.36031 -10.36030 -10.35823 -10.35658
  Beta  occ. eigenvalues --   -2.09173  -1.36436  -1.36406  -1.36389  -1.11680
  Beta  occ. eigenvalues --   -1.09575  -1.09353  -1.09339  -1.05702  -1.05631
  Beta  occ. eigenvalues --   -1.05529  -1.05468  -1.05462  -1.01509  -1.01478
  Beta  occ. eigenvalues --   -1.01328  -0.98365  -0.98319  -0.98266  -0.98240
  Beta  occ. eigenvalues --   -0.93152  -0.93151  -0.93130  -0.93090  -0.93085
  Beta  occ. eigenvalues --   -0.91495  -0.91449  -0.91426  -0.91406  -0.85960
  Beta  occ. eigenvalues --   -0.85908  -0.85760  -0.85616  -0.85557  -0.84355
  Beta  occ. eigenvalues --   -0.84227  -0.84214  -0.79976  -0.79962  -0.79891
  Beta  occ. eigenvalues --   -0.76448  -0.76355  -0.76257  -0.76233  -0.76195
  Beta  occ. eigenvalues --   -0.76168  -0.76092  -0.75870  -0.73257  -0.69319
  Beta  occ. eigenvalues --   -0.69221  -0.69194  -0.69187  -0.67057  -0.67012
  Beta  occ. eigenvalues --   -0.66869  -0.66808  -0.66789  -0.65431  -0.65211
  Beta  occ. eigenvalues --   -0.65180  -0.62706  -0.62677  -0.62572  -0.62557
  Beta  occ. eigenvalues --   -0.60184  -0.60179  -0.60178  -0.60166  -0.59841
  Beta  occ. eigenvalues --   -0.59601  -0.59536  -0.58484  -0.58446  -0.58340
  Beta  occ. eigenvalues --   -0.58303  -0.58224  -0.57073  -0.56958  -0.56915
  Beta  occ. eigenvalues --   -0.56881  -0.55892  -0.55804  -0.55733  -0.55188
  Beta  occ. eigenvalues --   -0.55127  -0.54961  -0.54925  -0.54870  -0.54077
  Beta  occ. eigenvalues --   -0.54052  -0.54006  -0.53836  -0.50005  -0.49766
  Beta  occ. eigenvalues --   -0.49720  -0.49693  -0.49676  -0.49555  -0.49525
  Beta  occ. eigenvalues --   -0.49332  -0.48596  -0.48537  -0.48501  -0.48355
  Beta  occ. eigenvalues --   -0.48261  -0.47680  -0.47666  -0.47633  -0.47488
  Beta  occ. eigenvalues --   -0.41025  -0.40951  -0.40871  -0.40831  -0.40685
  Beta  occ. eigenvalues --   -0.40637  -0.40612  -0.40503  -0.40457  -0.36013
  Beta  occ. eigenvalues --   -0.35950  -0.35798  -0.35593  -0.35483
  Beta virt. eigenvalues --   -0.25453  -0.25386  -0.25245  -0.24375  -0.21168
  Beta virt. eigenvalues --   -0.21121  -0.20964  -0.16643  -0.16602  -0.16399
  Beta virt. eigenvalues --   -0.16182  -0.16011  -0.15877  -0.15684  -0.15609
  Beta virt. eigenvalues --   -0.11774  -0.11605  -0.10420  -0.10354  -0.10262
  Beta virt. eigenvalues --   -0.10245  -0.10215  -0.09965  -0.08117  -0.08066
  Beta virt. eigenvalues --   -0.08048  -0.08012  -0.05626  -0.05541  -0.05490
  Beta virt. eigenvalues --   -0.05333  -0.03754  -0.03477  -0.03438  -0.00828
  Beta virt. eigenvalues --   -0.00476  -0.00197   0.01020   0.02581   0.02754
  Beta virt. eigenvalues --    0.02763   0.02903   0.03147   0.03655   0.03794
  Beta virt. eigenvalues --    0.05191   0.05256   0.05784   0.05894   0.06122
  Beta virt. eigenvalues --    0.06153   0.07019   0.07081   0.07099   0.07232
  Beta virt. eigenvalues --    0.07860   0.10439   0.10534   0.10537   0.10690
  Beta virt. eigenvalues --    0.10726   0.12516   0.12634   0.12708   0.12716
  Beta virt. eigenvalues --    0.15466   0.15639   0.15750   0.15844   0.15995
  Beta virt. eigenvalues --    0.18505   0.18835   0.18945   0.20719   0.20778
  Beta virt. eigenvalues --    0.20910   0.22486   0.22565   0.22598   0.23810
  Beta virt. eigenvalues --    0.23942   0.24153   0.24295   0.24377   0.29696
  Beta virt. eigenvalues --    0.29876   0.30055   0.31626   0.31842   0.32187
  Beta virt. eigenvalues --    0.32284   0.32637   0.32796   0.32951   0.33022
  Beta virt. eigenvalues --    0.33085   0.33194   0.33399   0.33434   0.33487
  Beta virt. eigenvalues --    0.35422   0.35512   0.35559   0.37406   0.37467
  Beta virt. eigenvalues --    0.37641   0.37664   0.37816   0.38549   0.38701
  Beta virt. eigenvalues --    0.38777   0.38851   0.40305   0.40350   0.40351
  Beta virt. eigenvalues --    0.40495   0.40574   0.40937   0.41094   0.41127
  Beta virt. eigenvalues --    0.41145   0.41152   0.42115   0.42209   0.42213
  Beta virt. eigenvalues --    0.42286   0.42495   0.42759   0.42973   0.43195
  Beta virt. eigenvalues --    0.43232   0.43392   0.43617   0.43790   0.43887
  Beta virt. eigenvalues --    0.44049   0.44183   0.44195   0.44585   0.44673
  Beta virt. eigenvalues --    0.44811   0.44828   0.45018   0.45075   0.45203
  Beta virt. eigenvalues --    0.45634   0.45671   0.45920   0.46022   0.46048
  Beta virt. eigenvalues --    0.49636   0.49768   0.49965   0.50146   0.50272
  Beta virt. eigenvalues --    0.50362   0.50407   0.50768   0.50815   0.50966
  Beta virt. eigenvalues --    0.50981   0.51096   0.51134   0.51519   0.51625
  Beta virt. eigenvalues --    0.51691   0.51741   0.51862   0.52496   0.52776
  Beta virt. eigenvalues --    0.52899   0.53039   0.53250   0.53296   0.53336
  Beta virt. eigenvalues --    0.53806   0.53990   0.54021   0.54201   0.54441
  Beta virt. eigenvalues --    0.54486   0.54684   0.54753   0.54765   0.54778
  Beta virt. eigenvalues --    0.54885   0.54887   0.54937   0.55483   0.55576
  Beta virt. eigenvalues --    0.55620   0.56116   0.56125   0.56182   0.56281
  Beta virt. eigenvalues --    0.56295   0.56336   0.56457   0.57232   0.57254
  Beta virt. eigenvalues --    0.57364   0.57418   0.57523   0.57583   0.57622
  Beta virt. eigenvalues --    0.62036   0.62696   0.62740   0.63420   0.64639
  Beta virt. eigenvalues --    0.64746   0.64782   0.65291   0.65850   0.66106
  Beta virt. eigenvalues --    0.66225   0.73175   0.73196   0.73604   0.73653
  Beta virt. eigenvalues --    0.73693   0.73699   0.74751   0.74938   0.75096
  Beta virt. eigenvalues --    0.76352   0.76629   0.77000   0.77008   0.77093
  Beta virt. eigenvalues --    0.77154   0.77187   0.78505   0.78541   0.78633
  Beta virt. eigenvalues --    0.78635   0.78682   0.79482   0.79573   0.79607
  Beta virt. eigenvalues --    0.79704   0.79731   0.81529   0.81658   0.81712
  Beta virt. eigenvalues --    0.81769   0.81920   0.81929   0.81984   0.84503
  Beta virt. eigenvalues --    0.84600   0.84635   0.84672   0.84749   0.87609
  Beta virt. eigenvalues --    0.90100   0.90142   0.91168   0.91305   0.91338
  Beta virt. eigenvalues --    0.91507   0.91673   0.91757   0.91961   0.91982
  Beta virt. eigenvalues --    0.92134   0.92308   0.94415   0.94540   0.94745
  Beta virt. eigenvalues --    0.94774   0.94789   0.94879   0.94901   0.94951
  Beta virt. eigenvalues --    0.95165   0.95186   0.95379   0.95686   0.95888
  Beta virt. eigenvalues --    0.96034   0.96049   0.96197   0.97063   0.97161
  Beta virt. eigenvalues --    0.97277   0.97316   0.97346   0.97873   0.97971
  Beta virt. eigenvalues --    0.97973   0.98116   0.99958   1.02932   1.02932
  Beta virt. eigenvalues --    1.02997   1.03011   1.03029   1.03137   1.03198
  Beta virt. eigenvalues --    1.03458   1.03483   1.03507   1.03526   1.03557
  Beta virt. eigenvalues --    1.07108   1.07111   1.07360   1.09710   1.09757
  Beta virt. eigenvalues --    1.09829   1.09910   1.13851   1.13872   1.13997
  Beta virt. eigenvalues --    1.14160   1.14167   1.14473   1.14606   1.14807
  Beta virt. eigenvalues --    1.14845   1.14872   1.14891   1.14892   1.15002
  Beta virt. eigenvalues --    1.16708   1.16713   1.16770   1.16868   1.20040
  Beta virt. eigenvalues --    1.20959   1.21288   1.24272   1.24362   1.24465
  Beta virt. eigenvalues --    1.25126   1.25285   1.26513   1.26613   1.26713
  Beta virt. eigenvalues --    1.28239   1.28282   1.28323   1.41126   1.48004
  Beta virt. eigenvalues --    1.48009   1.48510   1.48761   1.48844   1.59691
  Beta virt. eigenvalues --    1.60357   1.60561   1.73623   1.73640   1.73814
  Beta virt. eigenvalues --    1.73947   1.93455   1.93675   1.94155   1.94232
  Beta virt. eigenvalues --    1.94340   2.14791   2.15314   2.15374   2.15972
  Beta virt. eigenvalues --    2.42674   2.43038   2.43456
          Condensed to atoms (all electrons):
          Atomic-Atomic Spin Densities.
 Mulliken charges and spin densities:
               1          2
     1  C   -0.003743   0.037831
     2  C   -0.001553   0.001750
     3  C    0.005152   0.002823
     4  C    0.000614   0.000568
     5  C    0.002598  -0.004535
     6  C    0.003314   0.006899
     7  C   -0.006473  -0.018239
     8  C    0.010858   0.054590
     9  C    0.003765   0.009137
    10  C    0.000397  -0.001993
    11  C    0.010776   0.040568
    12  C    0.000614   0.000568
    13  C    0.002599  -0.004535
    14  C   -0.003912  -0.001473
    15  C   -0.003912  -0.001473
    16  C   -0.006817  -0.006670
    17  C    0.006855   0.041395
    18  C   -0.019058   0.032974
    19  C   -0.010301  -0.010097
    20  C   -0.003522  -0.005824
    21  C   -0.013182   0.027637
    22  C    0.003177   0.057550
    23  C   -0.015882   0.026384
    24  C   -0.043176   0.012997
    25  C   -0.037085  -0.006981
    26  C   -0.027803   0.013196
    27  C   -0.027802   0.013196
    28  C   -0.006818  -0.006670
    29  C    0.005152   0.002823
    30  C   -0.010301  -0.010097
    31  C   -0.006474  -0.018239
    32  C    0.010857   0.054590
    33  C   -0.003523  -0.005823
    34  C   -0.013182   0.027637
    35  C   -0.015882   0.026384
    36  C   -0.043176   0.012997
    37  C   -0.019059   0.032974
    38  C    0.006855   0.041396
    39  C    0.003314   0.006898
    40  C   -0.003744   0.037831
    41  C    0.003766   0.009138
    42  C    0.000396  -0.001993
    43  C    0.004672   0.003210
    44  C    0.003821  -0.004796
    45  C    0.002463   0.001119
    46  C   -0.013686  -0.014215
    47  C   -0.006874   0.029468
    48  C   -0.046775  -0.017323
    49  C   -0.037086  -0.006981
    50  C   -0.019968   0.088680
    51  C   -0.055884   0.070361
    52  C   -0.046773  -0.017323
    53  C   -0.006874   0.029468
    54  C   -0.013685  -0.014215
    55  C    0.002462   0.001118
    56  C    0.003821  -0.004796
    57  C    0.004672   0.003211
    58  C   -0.001553   0.001750
    59  C    0.001641   0.024895
    60  C    0.003176   0.057551
    61  Ca   1.487748   0.240731
 Sum of Mulliken charges =   1.00000   1.00000
 Mulliken charges and spin densities with hydrogens summed into heavy atoms:
               1          2
     1  C   -0.003743   0.037831
     2  C   -0.001553   0.001750
     3  C    0.005152   0.002823
     4  C    0.000614   0.000568
     5  C    0.002598  -0.004535
     6  C    0.003314   0.006899
     7  C   -0.006473  -0.018239
     8  C    0.010858   0.054590
     9  C    0.003765   0.009137
    10  C    0.000397  -0.001993
    11  C    0.010776   0.040568
    12  C    0.000614   0.000568
    13  C    0.002599  -0.004535
    14  C   -0.003912  -0.001473
    15  C   -0.003912  -0.001473
    16  C   -0.006817  -0.006670
    17  C    0.006855   0.041395
    18  C   -0.019058   0.032974
    19  C   -0.010301  -0.010097
    20  C   -0.003522  -0.005824
    21  C   -0.013182   0.027637
    22  C    0.003177   0.057550
    23  C   -0.015882   0.026384
    24  C   -0.043176   0.012997
    25  C   -0.037085  -0.006981
    26  C   -0.027803   0.013196
    27  C   -0.027802   0.013196
    28  C   -0.006818  -0.006670
    29  C    0.005152   0.002823
    30  C   -0.010301  -0.010097
    31  C   -0.006474  -0.018239
    32  C    0.010857   0.054590
    33  C   -0.003523  -0.005823
    34  C   -0.013182   0.027637
    35  C   -0.015882   0.026384
    36  C   -0.043176   0.012997
    37  C   -0.019059   0.032974
    38  C    0.006855   0.041396
    39  C    0.003314   0.006898
    40  C   -0.003744   0.037831
    41  C    0.003766   0.009138
    42  C    0.000396  -0.001993
    43  C    0.004672   0.003210
    44  C    0.003821  -0.004796
    45  C    0.002463   0.001119
    46  C   -0.013686  -0.014215
    47  C   -0.006874   0.029468
    48  C   -0.046775  -0.017323
    49  C   -0.037086  -0.006981
    50  C   -0.019968   0.088680
    51  C   -0.055884   0.070361
    52  C   -0.046773  -0.017323
    53  C   -0.006874   0.029468
    54  C   -0.013685  -0.014215
    55  C    0.002462   0.001118
    56  C    0.003821  -0.004796
    57  C    0.004672   0.003211
    58  C   -0.001553   0.001750
    59  C    0.001641   0.024895
    60  C    0.003176   0.057551
    61  Ca   1.487748   0.240731
 Electronic spatial extent (au):  <R**2>=          17158.3103
 Charge=              1.0000 electrons
 Dipole moment (field-independent basis, Debye):
    X=              0.0998    Y=              0.0021    Z=             -0.0000  Tot=              0.0998
 Quadrupole moment (field-independent basis, Debye-Ang):
   XX=           -334.5795   YY=           -331.1050   ZZ=           -334.0659
   XY=              0.7424   XZ=              0.0000   YZ=             -0.0000
 Traceless Quadrupole moment (field-independent basis, Debye-Ang):
   XX=             -1.3294   YY=              2.1452   ZZ=             -0.8158
   XY=              0.7424   XZ=              0.0000   YZ=             -0.0000
 Octapole moment (field-independent basis, Debye-Ang**2):
  XXX=            -18.9207  YYY=              2.1339  ZZZ=              0.0007  XYY=             -5.7942
  XXY=              1.1401  XXZ=              0.0004  XZZ=             -5.4676  YZZ=              1.0225
  YYZ=              0.0003  XYZ=             -0.0000
 Hexadecapole moment (field-independent basis, Debye-Ang**3):
 XXXX=          -8676.9222 YYYY=          -8556.8479 ZZZZ=          -8554.3588 XXXY=              9.4037
 XXXZ=              0.0037 YYYX=              6.7736 YYYZ=             -0.0006 ZZZX=              0.0019
 ZZZY=             -0.0004 XXYY=          -2869.0067 XXZZ=          -2866.4602 YYZZ=          -2859.4535
 XXYZ=             -0.0005 YYXZ=              0.0002 ZZXY=              0.9630
 N-N= 9.348543761474D+03 E-N=-2.554336800145D+04  KE= 2.950142786289D+03
 There are a total of     1415682 grid points.
 ElSum from          density=      379.0001176169
 ElSum from atomic densities=      380.0001969668

 Hirshfeld populations at iteration   1 (CX, CA, CB, DipXYZ):
               1          2          3          4          5          6
     1  C    0.000000   3.009557   2.986209  -0.027887   0.020643  -0.063952
     2  C    0.000000   3.000134   2.993290  -0.048943   0.016094  -0.052630
     3  C    0.000000   3.001375   2.991420  -0.054952   0.045062  -0.017512
     4  C    0.000000   2.996184   2.993924  -0.047825   0.057807  -0.009819
     5  C    0.000000   2.997454   2.996018  -0.005554   0.067208  -0.033135
     6  C    0.000000   3.006810   2.990487  -0.005850   0.052691  -0.049024
     7  C    0.000000   2.993770   2.994754  -0.024706   0.004530  -0.072856
     8  C    0.000000   3.018686   2.979839  -0.031002  -0.009860  -0.060808
     9  C    0.000000   3.004621   2.990171  -0.050806   0.001685  -0.050745
    10  C    0.000000   2.997775   2.993923  -0.067885  -0.024410  -0.016773
    11  C    0.000000   3.016321   2.983181  -0.061255   0.029112   0.000004
    12  C    0.000000   2.996184   2.993924  -0.047824   0.057807   0.009825
    13  C    0.000000   2.997454   2.996018  -0.005551   0.067208   0.033136
    14  C    0.000000   2.996111   2.995183   0.012261   0.072447   0.025421
    15  C    0.000000   2.996111   2.995183   0.012259   0.072447  -0.025423
[...]
    38   Atom        0.017145      0.021959      0.036362
    39   Atom       -0.006016     -0.006496      0.015103
    40   Atom       -0.005329     -0.012240      0.019772
    41   Atom       -0.002311     -0.012157      0.000596
    42   Atom        0.002450     -0.000832     -0.002075
    43   Atom        0.004290     -0.003193     -0.002505
    44   Atom       -0.001002      0.000321      0.000995
    45   Atom        0.000507     -0.000079     -0.000466
    46   Atom        0.003333     -0.002619      0.006395
    47   Atom       -0.022285      0.009780     -0.016023
    48   Atom        0.004154     -0.002780     -0.001622
    49   Atom        0.007467      0.006521      0.007296
    50   Atom       -0.003048     -0.000009      0.000000
    51   Atom       -0.034320     -0.000006      0.000002
    52   Atom        0.004154      0.002782      0.001621
    53   Atom       -0.022284     -0.009781      0.016025
    54   Atom        0.003332      0.002619     -0.006396
    55   Atom        0.000507      0.000079      0.000466
    56   Atom       -0.001002     -0.000321     -0.000995
    57   Atom        0.004291      0.003193      0.002505
    58   Atom       -0.002261     -0.002926      0.000393
    59   Atom       -0.000455     -0.000002      0.000000
    60   Atom       -0.011421      0.022637     -0.040902
    61   Atom       -0.010155     -0.000002      0.000000
 --------------------------------------------------------


 ---------------------------------------------------------------------------------
              Anisotropic Spin Dipole Couplings in Principal Axis System
 ---------------------------------------------------------------------------------

       Atom             a.u.   MegaHertz   Gauss  10(-4) cm-1        Axes

              Baa    -0.0185    -2.480    -0.885    -0.827 -0.3693  0.7843  0.4985
     1 C(13)  Bbb    -0.0167    -2.239    -0.799    -0.747  0.8906  0.4520 -0.0513
              Bcc     0.0352     4.719     1.684     1.574  0.2655 -0.4250  0.8654
 
              Baa    -0.0039    -0.521    -0.186    -0.174  0.3286  0.8663 -0.3763
     2 C(13)  Bbb    -0.0030    -0.408    -0.146    -0.136 -0.1823  0.4491  0.8747
              Bcc     0.0069     0.929     0.332     0.310  0.9267 -0.2189  0.3055
 
              Baa    -0.0077    -1.032    -0.368    -0.344  0.6020  0.7300  0.3237
     3 C(13)  Bbb    -0.0056    -0.754    -0.269    -0.252 -0.5756  0.1157  0.8095
              Bcc     0.0133     1.786     0.637     0.596 -0.5534  0.6736 -0.4898
 
              Baa    -0.0012    -0.158    -0.056    -0.053  0.7886 -0.3932 -0.4728
     4 C(13)  Bbb    -0.0008    -0.113    -0.040    -0.038  0.6150  0.5037  0.6067
              Bcc     0.0020     0.271     0.097     0.090  0.0004  0.7692 -0.6390
 
              Baa    -0.0022    -0.297    -0.106    -0.099  0.2485 -0.5296  0.8110
     5 C(13)  Bbb     0.0003     0.040     0.014     0.013  0.8787  0.4756  0.0414
              Bcc     0.0019     0.258     0.092     0.086 -0.4076  0.7023  0.5836
 
              Baa    -0.0118    -1.578    -0.563    -0.526 -0.2273  0.6249  0.7469
     6 C(13)  Bbb    -0.0096    -1.287    -0.459    -0.429  0.9271  0.3737 -0.0306
              Bcc     0.0214     2.866     1.022     0.956 -0.2982  0.6854 -0.6643
 
              Baa    -0.0100    -1.343    -0.479    -0.448  0.2988  0.0622  0.9523
     7 C(13)  Bbb     0.0042     0.566     0.202     0.189  0.8786 -0.4073 -0.2491
              Bcc     0.0058     0.777     0.277     0.259  0.3724  0.9112 -0.1764
 
              Baa    -0.0325    -4.357    -1.555    -1.453  0.1612  0.9060 -0.3913
     8 C(13)  Bbb    -0.0303    -4.068    -1.452    -1.357  0.9057 -0.2933 -0.3059
              Bcc     0.0628     8.425     3.006     2.810  0.3920  0.3051  0.8679
 
              Baa    -0.0111    -1.493    -0.533    -0.498  0.2147  0.9381 -0.2717
     9 C(13)  Bbb    -0.0095    -1.280    -0.457    -0.427 -0.4005  0.3382  0.8516
              Bcc     0.0207     2.773     0.989     0.925  0.8908 -0.0740  0.4483
 
              Baa    -0.0031    -0.414    -0.148    -0.138  0.6976 -0.6843  0.2124
    10 C(13)  Bbb    -0.0006    -0.084    -0.030    -0.028 -0.5552 -0.3288  0.7640
              Bcc     0.0037     0.497     0.178     0.166  0.4530  0.6508  0.6093
 
              Baa    -0.0259    -3.472    -1.239    -1.158  0.2997  0.9540 -0.0000
    11 C(13)  Bbb    -0.0251    -3.366    -1.201    -1.123  0.0001 -0.0000  1.0000
              Bcc     0.0510     6.838     2.440     2.281  0.9540 -0.2997 -0.0001
 
              Baa    -0.0012    -0.158    -0.056    -0.053  0.7886 -0.3932  0.4727
    12 C(13)  Bbb    -0.0008    -0.113    -0.040    -0.038  0.6149  0.5037 -0.6068
              Bcc     0.0020     0.271     0.097     0.090  0.0005  0.7692  0.6390
 
              Baa    -0.0022    -0.297    -0.106    -0.099 -0.2484  0.5296  0.8110
    13 C(13)  Bbb     0.0003     0.040     0.014     0.013  0.8787  0.4756 -0.0415
              Bcc     0.0019     0.258     0.092     0.086 -0.4077  0.7024 -0.5835
 
              Baa    -0.0016    -0.219    -0.078    -0.073  0.3782  0.7795  0.4994
    14 C(13)  Bbb    -0.0001    -0.008    -0.003    -0.003  0.9253 -0.3013 -0.2305
              Bcc     0.0017     0.227     0.081     0.076  0.0292 -0.5492  0.8352
 
              Baa    -0.0016    -0.219    -0.078    -0.073  0.3781  0.7795 -0.4994
    15 C(13)  Bbb    -0.0001    -0.008    -0.003    -0.003  0.9253 -0.3013  0.2303
              Bcc     0.0017     0.227     0.081     0.076 -0.0291  0.5492  0.8352
 
              Baa    -0.0050    -0.668    -0.239    -0.223 -0.6196  0.1323  0.7737
    16 C(13)  Bbb    -0.0017    -0.231    -0.082    -0.077  0.6937 -0.3689  0.6186
              Bcc     0.0067     0.899     0.321     0.300  0.3673  0.9200  0.1368
 
              Baa    -0.0289    -3.872    -1.382    -1.292  0.1818  0.7251  0.6642
    17 C(13)  Bbb    -0.0275    -3.693    -1.318    -1.232  0.9171 -0.3688  0.1516
              Bcc     0.0564     7.566     2.700     2.524 -0.3548 -0.5816  0.7320
 
              Baa    -0.0183    -2.456    -0.876    -0.819  0.8015  0.3540  0.4820
    18 C(13)  Bbb    -0.0156    -2.095    -0.748    -0.699 -0.4705  0.8708  0.1427
              Bcc     0.0339     4.551     1.624     1.518 -0.3692 -0.3411  0.8645
 
              Baa    -0.0046    -0.619    -0.221    -0.207 -0.5489  0.4093  0.7288
    19 C(13)  Bbb     0.0002     0.023     0.008     0.008  0.8106  0.4735  0.3446
              Bcc     0.0044     0.596     0.213     0.199 -0.2041  0.7799 -0.5917
 
              Baa    -0.0042    -0.561    -0.200    -0.187 -0.2984  0.1742  0.9384
    20 C(13)  Bbb     0.0007     0.100     0.036     0.033 -0.2550  0.9329 -0.2542
              Bcc     0.0034     0.462     0.165     0.154  0.9197  0.3151  0.2340
 
              Baa    -0.0157    -2.105    -0.751    -0.702  0.3726 -0.6320  0.6795
    21 C(13)  Bbb    -0.0139    -1.867    -0.666    -0.623  0.9194  0.3511 -0.1776
              Bcc     0.0296     3.972     1.417     1.325 -0.1263  0.6909  0.7119
 
              Baa    -0.0368    -4.944    -1.764    -1.649  0.0624  0.8999 -0.4316
    22 C(13)  Bbb    -0.0351    -4.710    -1.681    -1.571  0.9677  0.0513  0.2467
              Bcc     0.0719     9.655     3.445     3.220 -0.2441  0.4331  0.8677
 
              Baa    -0.0225    -3.020    -1.077    -1.007  0.0652  0.9501 -0.3049
    23 C(13)  Bbb    -0.0197    -2.643    -0.943    -0.882  0.5651  0.2167  0.7961
              Bcc     0.0422     5.663     2.021     1.889  0.8224 -0.2242 -0.5228
 
              Baa    -0.0095    -1.277    -0.456    -0.426  0.1162  0.9879  0.1028
    24 C(13)  Bbb    -0.0083    -1.111    -0.396    -0.370  0.4661 -0.1456  0.8727
              Bcc     0.0178     2.388     0.852     0.796  0.8771 -0.0535 -0.4774
 
              Baa    -0.0087    -1.172    -0.418    -0.391  0.7424 -0.6700 -0.0043
    25 C(13)  Bbb    -0.0056    -0.752    -0.268    -0.251  0.4282  0.4695  0.7722
              Bcc     0.0143     1.924     0.687     0.642 -0.5153 -0.5751  0.6354
 
              Baa    -0.0072    -0.965    -0.344    -0.322 -0.3073  0.6920  0.6533
    26 C(13)  Bbb    -0.0060    -0.807    -0.288    -0.269  0.7005 -0.3002  0.6475
              Bcc     0.0132     1.772     0.632     0.591  0.6441  0.6566 -0.3924
 
              Baa    -0.0072    -0.965    -0.344    -0.322 -0.3074  0.6920 -0.6532
    27 C(13)  Bbb    -0.0060    -0.807    -0.288    -0.269  0.7004 -0.3002 -0.6476
              Bcc     0.0132     1.772     0.632     0.591  0.6442  0.6566  0.3923
 
              Baa    -0.0050    -0.668    -0.239    -0.223  0.6197 -0.1323  0.7736
    28 C(13)  Bbb    -0.0017    -0.231    -0.082    -0.077  0.6936 -0.3689 -0.6187
              Bcc     0.0067     0.899     0.321     0.300  0.3672  0.9200 -0.1368
 
              Baa    -0.0077    -1.032    -0.368    -0.344  0.6019  0.7300 -0.3238
    29 C(13)  Bbb    -0.0056    -0.754    -0.269    -0.252  0.5757 -0.1157  0.8094
              Bcc     0.0133     1.786     0.637     0.596 -0.5534  0.6736  0.4899
 
              Baa    -0.0046    -0.619    -0.221    -0.207  0.5490 -0.4093  0.7288
    30 C(13)  Bbb     0.0002     0.023     0.008     0.008  0.8105  0.4735 -0.3447
              Bcc     0.0044     0.596     0.213     0.199 -0.2040  0.7799  0.5917
 
              Baa    -0.0100    -1.343    -0.479    -0.448 -0.2987 -0.0622  0.9523
    31 C(13)  Bbb     0.0042     0.566     0.202     0.189  0.8787 -0.4073  0.2490
              Bcc     0.0058     0.777     0.277     0.259  0.3724  0.9112  0.1763
 
              Baa    -0.0325    -4.357    -1.555    -1.453  0.1613  0.9060  0.3913
    32 C(13)  Bbb    -0.0303    -4.068    -1.452    -1.357  0.9058 -0.2933  0.3058
              Bcc     0.0628     8.425     3.006     2.810 -0.3919 -0.3051  0.8679
 
              Baa    -0.0042    -0.561    -0.200    -0.187  0.2985 -0.1742  0.9384
    33 C(13)  Bbb     0.0007     0.100     0.036     0.033 -0.2549  0.9329  0.2543
              Bcc     0.0034     0.462     0.165     0.154  0.9197  0.3151 -0.2341
 
              Baa    -0.0157    -2.106    -0.751    -0.702 -0.3725  0.6320  0.6795
    34 C(13)  Bbb    -0.0139    -1.867    -0.666    -0.623  0.9194  0.3511  0.1775
              Bcc     0.0296     3.973     1.418     1.325  0.1264 -0.6909  0.7118
 
              Baa    -0.0225    -3.020    -1.078    -1.007  0.0652  0.9501  0.3049
    35 C(13)  Bbb    -0.0197    -2.643    -0.943    -0.882 -0.5650 -0.2167  0.7961
              Bcc     0.0422     5.663     2.021     1.889  0.8225 -0.2242  0.5227
 
              Baa    -0.0095    -1.277    -0.456    -0.426  0.1162  0.9879 -0.1028
    36 C(13)  Bbb    -0.0083    -1.111    -0.396    -0.370 -0.4660  0.1456  0.8727
              Bcc     0.0178     2.388     0.852     0.796  0.8771 -0.0535  0.4773
 
              Baa    -0.0183    -2.456    -0.876    -0.819  0.8014  0.3540 -0.4820
    37 C(13)  Bbb    -0.0156    -2.095    -0.748    -0.699 -0.4705  0.8708 -0.1426
              Bcc     0.0339     4.551     1.624     1.518  0.3693  0.3411  0.8645
 
              Baa    -0.0289    -3.872    -1.382    -1.292  0.1817  0.7251 -0.6642
    38 C(13)  Bbb    -0.0275    -3.694    -1.318    -1.232  0.9171 -0.3688 -0.1517
              Bcc     0.0564     7.566     2.700     2.524  0.3549  0.5816  0.7320
 
              Baa    -0.0118    -1.578    -0.563    -0.526  0.2274 -0.6249  0.7468
    39 C(13)  Bbb    -0.0096    -1.287    -0.459    -0.429  0.9271  0.3737  0.0304
              Bcc     0.0214     2.866     1.022     0.956 -0.2981  0.6854  0.6643
 
              Baa    -0.0185    -2.480    -0.885    -0.827 -0.3694  0.7843 -0.4984
    40 C(13)  Bbb    -0.0167    -2.239    -0.799    -0.747  0.8906  0.4520  0.0512
              Bcc     0.0352     4.719     1.684     1.574 -0.2654  0.4250  0.8654
 
              Baa    -0.0111    -1.493    -0.533    -0.498  0.2147  0.9381  0.2716
    41 C(13)  Bbb    -0.0095    -1.280    -0.457    -0.427  0.4006 -0.3382  0.8515
              Bcc     0.0207     2.773     0.990     0.925  0.8907 -0.0740 -0.4485
 
              Baa    -0.0031    -0.414    -0.148    -0.138  0.6975 -0.6844 -0.2124
    42 C(13)  Bbb    -0.0006    -0.084    -0.030    -0.028  0.5553  0.3288  0.7639
              Bcc     0.0037     0.498     0.178     0.166  0.4530  0.6508 -0.6093
 
              Baa    -0.0037    -0.496    -0.177    -0.165 -0.6748  0.7227 -0.1496
    43 C(13)  Bbb    -0.0033    -0.448    -0.160    -0.150  0.2288  0.3975  0.8886
              Bcc     0.0070     0.944     0.337     0.315  0.7017  0.5654 -0.4336
 
              Baa    -0.0021    -0.286    -0.102    -0.095  0.3688  0.8670 -0.3351
    44 C(13)  Bbb     0.0009     0.123     0.044     0.041  0.9030 -0.2488  0.3503
              Bcc     0.0012     0.162     0.058     0.054 -0.2203  0.4318  0.8746
 
              Baa    -0.0019    -0.259    -0.092    -0.086  0.8306 -0.0288  0.5561
    45 C(13)  Bbb    -0.0018    -0.248    -0.089    -0.083 -0.5495  0.1198  0.8269
              Bcc     0.0038     0.507     0.181     0.169  0.0905  0.9924 -0.0837
 
              Baa    -0.0098    -1.310    -0.468    -0.437 -0.3177  0.7844 -0.5327
    46 C(13)  Bbb     0.0042     0.563     0.201     0.188  0.9220  0.3868  0.0197
              Bcc     0.0056     0.747     0.267     0.249 -0.2215  0.4849  0.8461
 
              Baa    -0.0198    -2.659    -0.949    -0.887  0.8686  0.4903 -0.0717
    47 C(13)  Bbb    -0.0181    -2.429    -0.867    -0.810 -0.1186  0.3463  0.9306
              Bcc     0.0379     5.088     1.816     1.697 -0.4811  0.7998 -0.3590
 
              Baa    -0.0098    -1.308    -0.467    -0.436  0.9433 -0.3010  0.1400
    48 C(13)  Bbb     0.0023     0.307     0.110     0.102  0.1750  0.8093  0.5607
              Bcc     0.0075     1.001     0.357     0.334 -0.2820 -0.5044  0.8161
 
              Baa    -0.0087    -1.172    -0.418    -0.391  0.7424 -0.6700  0.0042
    49 C(13)  Bbb    -0.0056    -0.752    -0.268    -0.251 -0.4281 -0.4695  0.7722
              Bcc     0.0143     1.924     0.687     0.642  0.5154  0.5751  0.6353
 
              Baa    -0.0540    -7.245    -2.585    -2.417  0.0188  0.9998  0.0000
    50 C(13)  Bbb    -0.0537    -7.213    -2.574    -2.406  0.0001 -0.0000  1.0000
              Bcc     0.1077    14.458     5.159     4.823  0.9998 -0.0188 -0.0001
 
              Baa    -0.0379    -5.086    -1.815    -1.696  0.0001  0.0000  1.0000
    51 C(13)  Bbb    -0.0358    -4.803    -1.714    -1.602  0.3324  0.9432 -0.0000
              Bcc     0.0737     9.889     3.529     3.299  0.9432 -0.3324 -0.0001
 
              Baa    -0.0098    -1.308    -0.467    -0.436  0.9433 -0.3010 -0.1401
    52 C(13)  Bbb     0.0023     0.307     0.110     0.102  0.1749  0.8093 -0.5607
              Bcc     0.0075     1.001     0.357     0.334  0.2822  0.5044  0.8161
 
              Baa    -0.0198    -2.659    -0.949    -0.887  0.8686  0.4903  0.0716
    53 C(13)  Bbb    -0.0181    -2.429    -0.867    -0.810  0.1187 -0.3463  0.9306
              Bcc     0.0379     5.088     1.816     1.697 -0.4810  0.7998  0.3590
 
              Baa    -0.0098    -1.310    -0.468    -0.437 -0.3176  0.7844  0.5327
    54 C(13)  Bbb     0.0042     0.563     0.201     0.188  0.9220  0.3868 -0.0198
              Bcc     0.0056     0.747     0.267     0.249  0.2216 -0.4849  0.8460
 
              Baa    -0.0019    -0.259    -0.092    -0.086  0.8306 -0.0288 -0.5561
    55 C(13)  Bbb    -0.0018    -0.248    -0.089    -0.083  0.5494 -0.1198  0.8269
              Bcc     0.0038     0.507     0.181     0.169  0.0905  0.9924  0.0837
 
              Baa    -0.0021    -0.286    -0.102    -0.095  0.3689  0.8670  0.3351
    56 C(13)  Bbb     0.0009     0.123     0.044     0.041  0.9030 -0.2488 -0.3504
              Bcc     0.0012     0.162     0.058     0.054  0.2204 -0.4318  0.8746
 
              Baa    -0.0037    -0.496    -0.177    -0.165 -0.6748  0.7227  0.1497
    57 C(13)  Bbb    -0.0033    -0.448    -0.160    -0.150 -0.2287 -0.3975  0.8886
              Bcc     0.0070     0.944     0.337     0.315  0.7017  0.5654  0.4335
 
              Baa    -0.0039    -0.521    -0.186    -0.174  0.3287  0.8662  0.3763
    58 C(13)  Bbb    -0.0030    -0.408    -0.146    -0.136  0.1823 -0.4491  0.8747
              Bcc     0.0069     0.929     0.332     0.310  0.9267 -0.2189 -0.3056
 
              Baa    -0.0133    -1.788    -0.638    -0.597  0.0001  0.0000  1.0000
    59 C(13)  Bbb    -0.0125    -1.677    -0.599    -0.560  0.0119  0.9999 -0.0000
              Bcc     0.0258     3.466     1.237     1.156  0.9999 -0.0119 -0.0001
 
              Baa    -0.0368    -4.944    -1.764    -1.649  0.0624  0.8999  0.4316
    60 C(13)  Bbb    -0.0351    -4.710    -1.681    -1.571  0.9677  0.0513 -0.2468
              Bcc     0.0719     9.655     3.445     3.220  0.2442 -0.4331  0.8676
 

 ---------------------------------------------------------------------------------

 No NMR shielding tensors so no spin-rotation constants.
 Leave Link  601 at Thu Oct 17 13:59:12 2024, MaxMem=   104857600 cpu:             173.0 elap:              22.4
 (Enter /gpfs/softs/softwares/Gaussian/g16/l9999.exe)
 1\1\GINC-NODE077\SP\UB3LYP\6-31G\C60Ca1(1+,2)\JACOVELLAU\17-Oct-2024\0
 \\#p b3lyp/6-31g pop=hirshfeld\\Title Card Required\\1,2\C,0,-1.24542,
 1.409444,-3.032088\C,0,-2.483641,1.162851,-2.3065\C,0,-2.803107,1.9278
 24,-1.178025\C,0,-1.876778,2.96735,-0.729831\C,0,-0.692479,3.212147,-1
 .433565\C,0,-0.365794,2.423525,-2.619091\C,0,-0.72845,0.119115,-3.4846
 93\C,0,-1.65737,-0.923385,-3.050667\C,0,-2.737697,-0.279085,-2.317094\
 C,0,-3.276885,-0.890786,-1.178676\C,0,-3.376664,1.291758,0.000194\C,0,
 -1.876694,2.96735,0.730049\C,0,-0.692315,3.212147,1.433647\C,0,0.54744
 6,3.456813,0.699782\C,0,0.547366,3.456813,-0.699842\C,0,1.637255,2.816
 008,-1.436028\C,0,1.069708,2.183126,-2.621485\C,0,1.565782,0.929357,-3
 .031977\C,0,0.65121,-0.117031,-3.488029\C,0,-1.150306,-2.155271,-2.608
 378\C,0,0.284905,-2.400707,-2.606198\C,0,1.180925,-1.41003,-3.056816\C
 ,0,2.41437,-1.16604,-2.32498\C,0,2.65313,0.286807,-2.308532\C,0,3.2229
 72,0.904876,-1.178663\C,0,2.680173,2.193805,-0.729658\C,0,2.680257,2.1
 93805,0.729351\C,0,1.63742,2.816007,1.435841\C,0,-2.802971,1.927824,1.
 178348\C,0,0.651612,-0.117033,3.487954\C,0,-0.728049,0.119112,3.484776
 \C,0,-1.657019,-0.923388,3.050855\C,0,-1.150006,-2.155273,2.608507\C,0
 ,0.285204,-2.400709,2.606162\C,0,2.414638,-1.166042,2.324701\C,0,2.653
 396,0.286805,2.308227\C,0,1.566131,0.929354,3.031797\C,0,1.070009,2.18
 3124,2.621363\C,0,-0.365493,2.423523,2.619135\C,0,-1.245072,1.409442,3
 .032231\C,0,-2.73743,-0.279087,2.317408\C,0,-3.276749,-0.890787,1.1790
 51\C,0,-2.763605,-2.185607,0.730398\C,0,-1.723385,-2.803568,1.430496\C
 ,0,-0.636296,-3.451301,0.698897\C,0,0.607411,-3.197054,1.427633\C,0,1.
 804997,-2.977872,0.728759\C,0,2.723544,-1.923336,1.17896\C,0,3.223108,
 0.904875,1.178292\C,0,3.570721,0.116197,-0.000206\C,0,3.299604,-1.2821
 71,-0.000191\C,0,2.723409,-1.923335,-1.179276\C,0,1.804913,-2.977872,-
 0.72897\C,0,0.607247,-3.197053,-1.427707\C,0,-0.636376,-3.4513,-0.6988
 28\C,0,-1.723549,-2.803567,-1.430302\C,0,-2.763689,-2.185607,-0.730083
 \C,0,-2.483376,1.162849,2.306785\C,0,-3.596771,-0.096271,0.000206\C,0,
 1.181277,-1.410032,3.056679\Ca,0,0.687989,-0.076029,-0.000032\\Version
 =ES64L-G16RevB.01\State=2-A\HF=-2962.8800451\S2=0.753592\S2-1=0.\S2A=0
 .750012\RMSD=6.991e-09\Dipole=0.0392722,0.0008142,-0.0000027\Quadrupol
 e=-0.9883619,1.5948838,-0.6065218,0.5520083,0.0000097,-0.000017\PG=C01
  [X(C60Ca1)]\\@


 NOTHING PUZZLES ME MORE THAN TIME AND SPACE; AND YET NOTHING TROUBLES ME LESS
                                                          -- CHARLES LAMB (1810)
 Job cpu time:       0 days  5 hours 41 minutes 20.0 seconds.
 Elapsed time:       0 days  0 hours 43 minutes 40.0 seconds.
 File lengths (MBytes):  RWF=    512 Int=      0 D2E=      0 Chk=     48 Scr=     32
 Normal termination of Gaussian 16 at Thu Oct 17 13:59:13 2024.
